  ___ ___ ___ _ _ _
 |   |   |_  | | | |
 | | | | | . | | | |
 |__ |  _|___|_____| - 25.7.0
 |___|_|

User:   root@autodl-container-cb134f97cf-3ebc7372
Date:   Fri May 15 18:21:08 2026
Arch:   x86_64
Pid:    739224
CWD:    /root/autodl-tmp/2d-defect-dast
Python: 3.10.20
gpaw:   /root/miniconda3/envs/gpaw-env/lib/python3.10/site-packages/gpaw
_gpaw:  /root/miniconda3/envs/gpaw-env/lib/python3.10/site-packages/
        _gpaw.cpython-310-x86_64-linux-gnu.so
ase:    /root/miniconda3/envs/gpaw-env/lib/python3.10/site-packages/ase (version 3.28.0)
numpy:  /root/miniconda3/envs/gpaw-env/lib/python3.10/site-packages/numpy (version 2.2.6)
scipy:  /root/miniconda3/envs/gpaw-env/lib/python3.10/site-packages/scipy (version 1.15.2)
libxc:  7.0.0
units:  Angstrom and eV
cores: 1
OpenMP: False
OMP_NUM_THREADS: 1

input parameters:
  mode=PW(ecut=500.0),
  kpts=MonkhorstPack(size=array([3, 3, 1])),
  occupations=Occupations(name='fermi-dirac', width=0.05, fixmagmom=False),
  parallel={'gpu': True},
  spinpol=True,
  xc=XC(name='PBE')

environment variables:
  GPAW_CPUPY=False,
  GPAW_MPI4PY=False,
  GPAW_NEW=True,
  GPAW_NO_C_EXTENSION=False,
  GPAW_TRACE=False,
  GPAW_USE_GPUS=True

Diagonalizing LCAO Hamiltonian
Converting LCAO to grid
                                                                            
                                                                            
                                                                            
                                                                            
                   Se      Se      Se      Se      Se                       
                     Se      Se      Se      Se      Se                     
              W       W       W       W       W                             
                       Se      Se      Se      Se      Se                   
                W  Se   W  Se   W  Se   W  Se   W  Se                       
                          Se      Se      Se      Se      Se                
                   W Se    W Se    W Se    W Se    W Se                     
                       Se   Se Se   Se Se   Se Se   Se Se   Se              
                     W       W       W       W       W                      
                       W  Se   W  Se   W  Se   W  Se   W  Se                
                                                                            
                            Se      Se      Se      Se      Se              
                                                                            
                                                                            
                                                                            
                                                                            

Atomic positions and initial magnetic moments

Positions:
   0 W      0.000000    0.000000   16.670000    ( 0.0000,  0.0000,  0.0000)
   1 Se     1.640000    0.946854   18.340000    ( 0.0000,  0.0000,  0.0000)
   2 Se     1.640000    0.946854   15.000000    ( 0.0000,  0.0000,  0.0000)
   3 W     -1.640000    2.840563   16.670000    ( 0.0000,  0.0000,  0.0000)
   4 Se     0.000000    3.787418   18.340000    ( 0.0000,  0.0000,  0.0000)
   5 Se     0.000000    3.787418   15.000000    ( 0.0000,  0.0000,  0.0000)
   6 W     -3.280000    5.681127   16.670000    ( 0.0000,  0.0000,  0.0000)
   7 Se    -1.640000    6.627981   18.340000    ( 0.0000,  0.0000,  0.0000)
   8 Se    -1.640000    6.627981   15.000000    ( 0.0000,  0.0000,  0.0000)
   9 W     -4.920000    8.521690   16.670000    ( 0.0000,  0.0000,  0.0000)
  10 Se    -3.280000    9.468544   18.340000    ( 0.0000,  0.0000,  0.0000)
  11 Se    -3.280000    9.468544   15.000000    ( 0.0000,  0.0000,  0.0000)
  12 W     -6.560000   11.362253   16.670000    ( 0.0000,  0.0000,  0.0000)
  13 Se    -4.920000   12.309108   18.340000    ( 0.0000,  0.0000,  0.0000)
  14 Se    -4.920000   12.309108   15.000000    ( 0.0000,  0.0000,  0.0000)
  15 W      3.280000    0.000000   16.670000    ( 0.0000,  0.0000,  0.0000)
  16 Se     4.920000    0.946854   18.340000    ( 0.0000,  0.0000,  0.0000)
  17 Se     4.920000    0.946854   15.000000    ( 0.0000,  0.0000,  0.0000)
  18 W      1.640000    2.840563   16.670000    ( 0.0000,  0.0000,  0.0000)
  19 Se     3.280000    3.787418   18.340000    ( 0.0000,  0.0000,  0.0000)
  20 Se     3.280000    3.787418   15.000000    ( 0.0000,  0.0000,  0.0000)
  21 W      0.000000    5.681127   16.670000    ( 0.0000,  0.0000,  0.0000)
  22 Se     1.640000    6.627981   18.340000    ( 0.0000,  0.0000,  0.0000)
  23 Se     1.640000    6.627981   15.000000    ( 0.0000,  0.0000,  0.0000)
  24 W     -1.640000    8.521690   16.670000    ( 0.0000,  0.0000,  0.0000)
  25 Se     0.000000    9.468544   18.340000    ( 0.0000,  0.0000,  0.0000)
  26 Se     0.000000    9.468544   15.000000    ( 0.0000,  0.0000,  0.0000)
  27 W     -3.280000   11.362253   16.670000    ( 0.0000,  0.0000,  0.0000)
  28 Se    -1.640000   12.309108   18.340000    ( 0.0000,  0.0000,  0.0000)
  29 Se    -1.640000   12.309108   15.000000    ( 0.0000,  0.0000,  0.0000)
  30 W      6.560000    0.000000   16.670000    ( 0.0000,  0.0000,  0.0000)
  31 Se     8.200000    0.946854   18.340000    ( 0.0000,  0.0000,  0.0000)
  32 Se     8.200000    0.946854   15.000000    ( 0.0000,  0.0000,  0.0000)
  33 W      4.920000    2.840563   16.670000    ( 0.0000,  0.0000,  0.0000)
  34 Se     6.560000    3.787418   18.340000    ( 0.0000,  0.0000,  0.0000)
  35 Se     6.560000    3.787418   15.000000    ( 0.0000,  0.0000,  0.0000)
  36 W      3.280000    5.681127   16.670000    ( 0.0000,  0.0000,  0.0000)
  37 Se     4.920000    6.627981   18.340000    ( 0.0000,  0.0000,  0.0000)
  38 Se     4.920000    6.627981   15.000000    ( 0.0000,  0.0000,  0.0000)
  39 W      1.640000    8.521690   16.670000    ( 0.0000,  0.0000,  0.0000)
  40 Se     3.280000    9.468544   18.340000    ( 0.0000,  0.0000,  0.0000)
  41 Se     3.280000    9.468544   15.000000    ( 0.0000,  0.0000,  0.0000)
  42 W      0.000000   11.362253   16.670000    ( 0.0000,  0.0000,  0.0000)
  43 Se     1.640000   12.309108   18.340000    ( 0.0000,  0.0000,  0.0000)
  44 Se     1.640000   12.309108   15.000000    ( 0.0000,  0.0000,  0.0000)
  45 W      9.840000    0.000000   16.670000    ( 0.0000,  0.0000,  0.0000)
  46 Se    11.480000    0.946854   18.340000    ( 0.0000,  0.0000,  0.0000)
  47 Se    11.480000    0.946854   15.000000    ( 0.0000,  0.0000,  0.0000)
  48 W      8.200000    2.840563   16.670000    ( 0.0000,  0.0000,  0.0000)
  49 Se     9.840000    3.787418   18.340000    ( 0.0000,  0.0000,  0.0000)
  50 Se     9.840000    3.787418   15.000000    ( 0.0000,  0.0000,  0.0000)
  51 W      6.560000    5.681127   16.670000    ( 0.0000,  0.0000,  0.0000)
  52 Se     8.200000    6.627981   18.340000    ( 0.0000,  0.0000,  0.0000)
  53 Se     8.200000    6.627981   15.000000    ( 0.0000,  0.0000,  0.0000)
  54 W      4.920000    8.521690   16.670000    ( 0.0000,  0.0000,  0.0000)
  55 Se     6.560000    9.468544   18.340000    ( 0.0000,  0.0000,  0.0000)
  56 Se     6.560000    9.468544   15.000000    ( 0.0000,  0.0000,  0.0000)
  57 W      3.280000   11.362253   16.670000    ( 0.0000,  0.0000,  0.0000)
  58 Se     4.920000   12.309108   18.340000    ( 0.0000,  0.0000,  0.0000)
  59 Se     4.920000   12.309108   15.000000    ( 0.0000,  0.0000,  0.0000)
  60 W     13.120000    0.000000   16.670000    ( 0.0000,  0.0000,  0.0000)
  61 Se    14.760000    0.946854   18.340000    ( 0.0000,  0.0000,  0.0000)
  62 Se    14.760000    0.946854   15.000000    ( 0.0000,  0.0000,  0.0000)
  63 W     11.480000    2.840563   16.670000    ( 0.0000,  0.0000,  0.0000)
  64 Se    13.120000    3.787418   18.340000    ( 0.0000,  0.0000,  0.0000)
  65 Se    13.120000    3.787418   15.000000    ( 0.0000,  0.0000,  0.0000)
  66 W      9.840000    5.681127   16.670000    ( 0.0000,  0.0000,  0.0000)
  67 Se    11.480000    6.627981   18.340000    ( 0.0000,  0.0000,  0.0000)
  68 Se    11.480000    6.627981   15.000000    ( 0.0000,  0.0000,  0.0000)
  69 W      8.200000    8.521690   16.670000    ( 0.0000,  0.0000,  0.0000)
  70 Se     9.840000    9.468544   18.340000    ( 0.0000,  0.0000,  0.0000)
  71 Se     9.840000    9.468544   15.000000    ( 0.0000,  0.0000,  0.0000)
  72 W      6.560000   11.362253   16.670000    ( 0.0000,  0.0000,  0.0000)
  73 Se     8.200000   12.309108   18.340000    ( 0.0000,  0.0000,  0.0000)
  74 Se     8.200000   12.309108   15.000000    ( 0.0000,  0.0000,  0.0000)

Unit cell:
           periodic     x           y           z      points  spacing
  1. axis:    yes   16.400000    0.000000    0.000000    90     0.1578
  2. axis:    yes   -8.200000   14.202817    0.000000    90     0.1578
  3. axis:    no     0.000000   -0.000000   33.340000   175     0.1905

  Lengths:  16.400000  16.400000  33.340000
  Angles:   90.000000  90.000000 120.000000

Effective grid spacing dv^(1/3) = 0.1763

symmetry:
  number of symmetries: 12
  rotations: [
    [[ 1,  1,  0], [ 0, -1,  0], [ 0,  0,  1]],
    [[ 1,  1,  0], [ 0, -1,  0], [ 0,  0, -1]],
    [[ 1,  0,  0], [ 0,  1,  0], [ 0,  0,  1]],
    [[ 1,  0,  0], [ 0,  1,  0], [ 0,  0, -1]],
    [[ 0,  1,  0], [-1, -1,  0], [ 0,  0,  1]],
    [[ 0,  1,  0], [-1, -1,  0], [ 0,  0, -1]],
    [[ 0, -1,  0], [-1,  0,  0], [ 0,  0,  1]],
    [[ 0, -1,  0], [-1,  0,  0], [ 0,  0, -1]],
    [[-1,  0,  0], [ 1,  1,  0], [ 0,  0,  1]],
    [[-1,  0,  0], [ 1,  1,  0], [ 0,  0, -1]],
    [[-1, -1,  0], [ 1,  0,  0], [ 0,  0,  1]],
    [[-1, -1,  0], [ 1,  0,  0], [ 0,  0, -1]]]

bz sampling:
  number of bz points: 9
  number of ibz points: 3
  monkhorst-pack size: [3, 3, 1]
  monkhorst-pack shift: [0, 0, 0]
  points and weights: [
    [[  0.00000000,   0.00000000,   0.00000000], 0.11111111],  # 0
    [[  0.33333333,   0.00000000,   0.00000000], 0.66666667],  # 1
    [[  0.33333333,   0.33333333,   0.00000000], 0.22222222]]  # 2

plane wave coefficients: 197214
cutoff: 500.0 eV

spin-components: 2  # (collinear spins)
bands: 394
spin-degeneracy: 1
dtype: complex128

memory:
    storage: GPU
    wave functions: 7_450_836_288  # bytes  (7_450_836_288 per core)

parallelization:
    kpt:    1
    domain: 1
    band:   1

density:
  valence electrons: 650.0
  components: 2
  grid points: [ 90  90 175]
  charge: 0.0  # |e|

potential:
  grid points: [ 90  90 175]

species:
  W:
    name: Tungsten
    id: 3ed563b7d19992259c4d7db283f2ff78
    Z: 74.0
    valence: 14
    core: 60
    charge: 0.0
    file: /root/miniconda3/envs/gpaw-env/lib/python3.10/site-packages/gpaw_data/setups/W.PBE.gz
    compensation charges: {type: gauss,
                           rc: 0.40,
                           lmax: 2}
    cutoffs: {filter: 2.36,
              core: 3.02}
    projectors:
      #              energy  rcut
      - 5s(2.00)   -78.830   1.344
      - 6s(2.00)    -5.697   1.344
      - 5p(6.00)   -43.233   1.355
      - 6p(0.00)    -1.367   1.355
      - 5d(4.00)    -4.494   1.228
      -  d          22.717   1.228
  
    # Using partial waves for W as LCAO basis

  Se:
    name: Selenium
    id: 2336a0774a38175ff9db42ee3890f88a
    Z: 34.0
    valence: 6
    core: 28
    charge: 0.0
    file: /root/miniconda3/envs/gpaw-env/lib/python3.10/site-packages/gpaw_data/setups/Se.PBE.gz
    compensation charges: {type: gauss,
                           rc: 0.27,
                           lmax: 2}
    cutoffs: {filter: 1.77,
              core: 2.67}
    projectors:
      #              energy  rcut
      - 4s(2.00)   -17.277   0.847
      - 4p(4.00)    -6.512   1.005
      -  s           9.935   0.847
      -  p          20.699   1.005
      -  d           0.000   0.847
  
    # Using partial waves for Se as LCAO basis

Reference energy: -14274468.397905  # eV

eigensolver:
  {'converge_bands': 'occupied', 'name': 'Davidson', 'niter': 2}
Density mixing:
  Method: difference
  Backend: pulay
  Linear mixing parameter: 0.05
  old densities: 5
  Damping of long wavelength oscillations: 50
occupation numbers:
  Fermi-Dirac:
    width: 0.0500  # eV
  

<gpaw.new.pw.paw_poisson.SlowPAWPoissonSolver object at 0x7fcf5171f2e0>
xc functional:
  name: PBE with 2 nearest neighbor stencil

convergence criteria:
- Maximum [total energy] change in last 3 cyles: 0.0005 eV / valence electron
- Maximum integral of absolute [dens]ity change: 0.0001 electrons / valence electron
- Maximum integral of absolute [eigenst]ate change: 4e-08 eV^2 / valence electron
maximum number of iterations: 333

     iter     time        total  log10-change:  magmom
                         energy   eigst   dens
iter:   1 18:22:04  -506.357172   +0.39           +0.0000
iter:   2 18:22:43  -509.231026   -0.68  -1.25    +0.0000
iter:   3 18:23:21  -505.426104   -1.11  -1.26    +0.0000
iter:   4 18:24:00  -508.845173   -1.44  -1.60    +0.0000
iter:   5 18:24:39  -505.779022   -1.77  -1.63    +0.0000
iter:   6 18:25:18  -506.461485   -2.40  -1.99    +0.0000
iter:   7 18:25:56  -505.486460   -2.21  -1.92    +0.0000
iter:   8 18:26:35  -505.475672   -2.87  -2.46    +0.0000
iter:   9 18:27:14  -505.462874c  -3.51  -2.68    +0.0000
iter:  10 18:27:53  -505.456114c  -3.64  -2.88    +0.0000
iter:  11 18:28:32  -505.455035c  -3.98  -3.01    +0.0000
iter:  12 18:29:10  -505.454848c  -4.25  -3.17    +0.0000
iter:  13 18:29:49  -505.454870c  -4.45  -3.24    +0.0000
iter:  14 18:30:28  -505.454998c  -4.66  -3.31    +0.0000
iter:  15 18:31:07  -505.455129c  -4.82  -3.42    +0.0000
iter:  16 18:31:45  -505.455199c  -5.08  -3.58    +0.0000
iter:  17 18:32:24  -505.455122c  -5.11  -3.68    +0.0000
iter:  18 18:33:03  -505.455102c  -5.52  -4.09c   +0.0000
iter:  19 18:33:42  -505.455113c  -5.69  -4.27c   +0.0000
iter:  20 18:34:21  -505.455108c  -5.95  -4.31c   +0.0000
iter:  21 18:34:59  -505.455103c  -6.12  -4.35c   +0.0000
iter:  22 18:35:38  -505.455102c  -6.36  -4.46c   +0.0000
iter:  23 18:36:17  -505.455099c  -6.54  -4.53c   +0.0000
iter:  24 18:36:56  -505.455099c  -6.72  -4.65c   +0.0000
iter:  25 18:37:34  -505.455099c  -6.94  -4.76c   +0.0000
iter:  26 18:38:13  -505.455100c  -7.15  -4.77c   +0.0000
iter:  27 18:38:52  -505.455099c  -7.23  -4.81c   +0.0000
iter:  28 18:39:31  -505.455099c  -7.53c -5.27c   +0.0000
Converged in 28 steps
Energy contributions relative to reference atoms: (reference = -14274468.397905)

kinetic:         624.894525
coulomb:        -631.602036
zero:             -1.939409
external:          0.000000
xc:             -496.808179
entropy:          -0.000000
spinorbit:         0.000000
----------------------------
Free energy:    -505.455099
Extrapolated:   -505.455099

dipole moment: [-44.658467, -326.196827, 0.006972]  # |e|*Ang

total magnetic moment: [0.000000, 0.000000, 0.000000]

local magnetic moments: [
  [ 0.000000,  0.000000,  0.000000],  # W  0
  [ 0.000000,  0.000000, -0.000000],  # Se 1
  [ 0.000000,  0.000000, -0.000000],  # Se 2
  [ 0.000000,  0.000000,  0.000000],  # W  3
  [ 0.000000,  0.000000, -0.000000],  # Se 4
  [ 0.000000,  0.000000, -0.000000],  # Se 5
  [ 0.000000,  0.000000,  0.000000],  # W  6
  [ 0.000000,  0.000000,  0.000000],  # Se 7
  [ 0.000000,  0.000000,  0.000000],  # Se 8
  [ 0.000000,  0.000000,  0.000000],  # W  9
  [ 0.000000,  0.000000,  0.000000],  # Se 10
  [ 0.000000,  0.000000,  0.000000],  # Se 11
  [ 0.000000,  0.000000,  0.000000],  # W  12
  [ 0.000000,  0.000000, -0.000000],  # Se 13
  [ 0.000000,  0.000000, -0.000000],  # Se 14
  [ 0.000000,  0.000000,  0.000000],  # W  15
  [ 0.000000,  0.000000, -0.000000],  # Se 16
  [ 0.000000,  0.000000, -0.000000],  # Se 17
  [ 0.000000,  0.000000,  0.000000],  # W  18
  [ 0.000000,  0.000000, -0.000000],  # Se 19
  [ 0.000000,  0.000000, -0.000000],  # Se 20
  [ 0.000000,  0.000000, -0.000000],  # W  21
  [ 0.000000,  0.000000,  0.000000],  # Se 22
  [ 0.000000,  0.000000,  0.000000],  # Se 23
  [ 0.000000,  0.000000, -0.000000],  # W  24
  [ 0.000000,  0.000000,  0.000000],  # Se 25
  [ 0.000000,  0.000000,  0.000000],  # Se 26
  [ 0.000000,  0.000000, -0.000000],  # W  27
  [ 0.000000,  0.000000,  0.000000],  # Se 28
  [ 0.000000,  0.000000,  0.000000],  # Se 29
  [ 0.000000,  0.000000,  0.000000],  # W  30
  [ 0.000000,  0.000000, -0.000000],  # Se 31
  [ 0.000000,  0.000000, -0.000000],  # Se 32
  [ 0.000000,  0.000000, -0.000000],  # W  33
  [ 0.000000,  0.000000,  0.000000],  # Se 34
  [ 0.000000,  0.000000,  0.000000],  # Se 35
  [ 0.000000,  0.000000,  0.000000],  # W  36
  [ 0.000000,  0.000000, -0.000000],  # Se 37
  [ 0.000000,  0.000000, -0.000000],  # Se 38
  [ 0.000000,  0.000000, -0.000000],  # W  39
  [ 0.000000,  0.000000,  0.000000],  # Se 40
  [ 0.000000,  0.000000,  0.000000],  # Se 41
  [ 0.000000,  0.000000, -0.000000],  # W  42
  [ 0.000000,  0.000000,  0.000000],  # Se 43
  [ 0.000000,  0.000000,  0.000000],  # Se 44
  [ 0.000000,  0.000000,  0.000000],  # W  45
  [ 0.000000,  0.000000, -0.000000],  # Se 46
  [ 0.000000,  0.000000, -0.000000],  # Se 47
  [ 0.000000,  0.000000, -0.000000],  # W  48
  [ 0.000000,  0.000000,  0.000000],  # Se 49
  [ 0.000000,  0.000000,  0.000000],  # Se 50
  [ 0.000000,  0.000000, -0.000000],  # W  51
  [ 0.000000,  0.000000,  0.000000],  # Se 52
  [ 0.000000,  0.000000,  0.000000],  # Se 53
  [ 0.000000,  0.000000,  0.000000],  # W  54
  [ 0.000000,  0.000000, -0.000000],  # Se 55
  [ 0.000000,  0.000000, -0.000000],  # Se 56
  [ 0.000000,  0.000000, -0.000000],  # W  57
  [ 0.000000,  0.000000, -0.000000],  # Se 58
  [ 0.000000,  0.000000, -0.000000],  # Se 59
  [ 0.000000,  0.000000,  0.000000],  # W  60
  [ 0.000000,  0.000000, -0.000000],  # Se 61
  [ 0.000000,  0.000000, -0.000000],  # Se 62
  [ 0.000000,  0.000000, -0.000000],  # W  63
  [ 0.000000,  0.000000, -0.000000],  # Se 64
  [ 0.000000,  0.000000, -0.000000],  # Se 65
  [ 0.000000,  0.000000, -0.000000],  # W  66
  [ 0.000000,  0.000000, -0.000000],  # Se 67
  [ 0.000000,  0.000000, -0.000000],  # Se 68
  [ 0.000000,  0.000000, -0.000000],  # W  69
  [ 0.000000,  0.000000, -0.000000],  # Se 70
  [ 0.000000,  0.000000, -0.000000],  # Se 71
  [ 0.000000,  0.000000,  0.000000],  # W  72
  [ 0.000000,  0.000000, -0.000000],  # Se 73
  [ 0.000000,  0.000000, -0.000000]]  # Se 74


Fermi level: -1.643

kpt = [0.000, 0.000, 0.000], weight = 0.111:
  Band      eig [eV]   occ [0-1]      eig [eV]   occ [0-1]
     0       -76.248       1.000       -76.248       1.000
     1       -76.244       1.000       -76.244       1.000
     2       -76.244       1.000       -76.244       1.000
     3       -76.244       1.000       -76.244       1.000
     4       -76.244       1.000       -76.244       1.000
     5       -76.244       1.000       -76.244       1.000
     6       -76.244       1.000       -76.244       1.000
     7       -76.239       1.000       -76.239       1.000
     8       -76.239       1.000       -76.239       1.000
     9       -76.239       1.000       -76.239       1.000
    10       -76.239       1.000       -76.239       1.000
    11       -76.239       1.000       -76.239       1.000
    12       -76.239       1.000       -76.239       1.000
    13       -76.238       1.000       -76.238       1.000
    14       -76.238       1.000       -76.238       1.000
    15       -76.238       1.000       -76.238       1.000
    16       -76.238       1.000       -76.238       1.000
    17       -76.238       1.000       -76.238       1.000
    18       -76.238       1.000       -76.238       1.000
    19       -76.236       1.000       -76.236       1.000
    20       -76.236       1.000       -76.236       1.000
    21       -76.236       1.000       -76.236       1.000
    22       -76.236       1.000       -76.236       1.000
    23       -76.236       1.000       -76.236       1.000
    24       -76.236       1.000       -76.236       1.000
    25       -40.849       1.000       -40.849       1.000
    26       -40.849       1.000       -40.849       1.000
    27       -40.849       1.000       -40.849       1.000
    28       -40.849       1.000       -40.849       1.000
    29       -40.849       1.000       -40.849       1.000
    30       -40.849       1.000       -40.849       1.000
    31       -40.844       1.000       -40.844       1.000
    32       -40.844       1.000       -40.844       1.000
    33       -40.844       1.000       -40.844       1.000
    34       -40.844       1.000       -40.844       1.000
    35       -40.844       1.000       -40.844       1.000
    36       -40.844       1.000       -40.844       1.000
    37       -40.803       1.000       -40.803       1.000
    38       -40.803       1.000       -40.803       1.000
    39       -40.803       1.000       -40.803       1.000
    40       -40.803       1.000       -40.803       1.000
    41       -40.803       1.000       -40.803       1.000
    42       -40.803       1.000       -40.803       1.000
    43       -40.765       1.000       -40.765       1.000
    44       -40.749       1.000       -40.749       1.000
    45       -40.749       1.000       -40.749       1.000
    46       -40.749       1.000       -40.749       1.000
    47       -40.749       1.000       -40.749       1.000
    48       -40.749       1.000       -40.749       1.000
    49       -40.749       1.000       -40.749       1.000
    50       -40.741       1.000       -40.741       1.000
    51       -40.741       1.000       -40.741       1.000
    52       -40.741       1.000       -40.741       1.000
    53       -40.741       1.000       -40.741       1.000
    54       -40.741       1.000       -40.741       1.000
    55       -40.741       1.000       -40.741       1.000
    56       -40.728       1.000       -40.728       1.000
    57       -40.728       1.000       -40.728       1.000
    58       -40.728       1.000       -40.728       1.000
    59       -40.728       1.000       -40.728       1.000
    60       -40.728       1.000       -40.728       1.000
    61       -40.728       1.000       -40.728       1.000
    62       -40.723       1.000       -40.723       1.000
    63       -40.723       1.000       -40.723       1.000
    64       -40.723       1.000       -40.723       1.000
    65       -40.723       1.000       -40.723       1.000
    66       -40.723       1.000       -40.723       1.000
    67       -40.723       1.000       -40.723       1.000
    68       -40.717       1.000       -40.717       1.000
    69       -40.717       1.000       -40.717       1.000
    70       -40.717       1.000       -40.717       1.000
    71       -40.717       1.000       -40.717       1.000
    72       -40.717       1.000       -40.717       1.000
    73       -40.717       1.000       -40.717       1.000
    74       -40.716       1.000       -40.716       1.000
    75       -40.716       1.000       -40.716       1.000
    76       -40.716       1.000       -40.716       1.000
    77       -40.716       1.000       -40.716       1.000
    78       -40.716       1.000       -40.716       1.000
    79       -40.716       1.000       -40.716       1.000
    80       -40.701       1.000       -40.701       1.000
    81       -40.701       1.000       -40.701       1.000
    82       -40.701       1.000       -40.701       1.000
    83       -40.701       1.000       -40.701       1.000
    84       -40.701       1.000       -40.701       1.000
    85       -40.701       1.000       -40.701       1.000
    86       -40.685       1.000       -40.685       1.000
    87       -40.685       1.000       -40.685       1.000
    88       -40.685       1.000       -40.685       1.000
    89       -40.685       1.000       -40.685       1.000
    90       -40.685       1.000       -40.685       1.000
    91       -40.685       1.000       -40.685       1.000
    92       -40.654       1.000       -40.654       1.000
    93       -40.654       1.000       -40.654       1.000
    94       -40.654       1.000       -40.654       1.000
    95       -40.654       1.000       -40.654       1.000
    96       -40.654       1.000       -40.654       1.000
    97       -40.654       1.000       -40.654       1.000
    98       -40.634       1.000       -40.634       1.000
    99       -40.634       1.000       -40.634       1.000
   100       -17.308       1.000       -17.308       1.000
   101       -16.729       1.000       -16.729       1.000
   102       -16.729       1.000       -16.729       1.000
   103       -16.729       1.000       -16.729       1.000
   104       -16.729       1.000       -16.729       1.000
   105       -16.729       1.000       -16.729       1.000
   106       -16.729       1.000       -16.729       1.000
   107       -16.023       1.000       -16.023       1.000
   108       -15.812       1.000       -15.812       1.000
   109       -15.812       1.000       -15.812       1.000
   110       -15.811       1.000       -15.811       1.000
   111       -15.811       1.000       -15.811       1.000
   112       -15.811       1.000       -15.811       1.000
   113       -15.811       1.000       -15.811       1.000
   114       -15.732       1.000       -15.732       1.000
   115       -15.732       1.000       -15.732       1.000
   116       -15.732       1.000       -15.732       1.000
   117       -15.732       1.000       -15.732       1.000
   118       -15.732       1.000       -15.732       1.000
   119       -15.732       1.000       -15.732       1.000
   120       -15.533       1.000       -15.533       1.000
   121       -15.533       1.000       -15.533       1.000
   122       -15.533       1.000       -15.533       1.000
   123       -15.533       1.000       -15.533       1.000
   124       -15.533       1.000       -15.533       1.000
   125       -15.533       1.000       -15.533       1.000
   126       -15.278       1.000       -15.278       1.000
   127       -15.278       1.000       -15.278       1.000
   128       -15.278       1.000       -15.278       1.000
   129       -15.278       1.000       -15.278       1.000
   130       -15.278       1.000       -15.278       1.000
   131       -15.278       1.000       -15.278       1.000
   132       -15.158       1.000       -15.158       1.000
   133       -15.158       1.000       -15.158       1.000
   134       -15.158       1.000       -15.158       1.000
   135       -15.157       1.000       -15.157       1.000
   136       -15.157       1.000       -15.157       1.000
   137       -15.157       1.000       -15.157       1.000
   138       -15.090       1.000       -15.090       1.000
   139       -15.090       1.000       -15.090       1.000
   140       -15.090       1.000       -15.090       1.000
   141       -15.090       1.000       -15.090       1.000
   142       -15.090       1.000       -15.090       1.000
   143       -15.090       1.000       -15.090       1.000
   144       -14.931       1.000       -14.931       1.000
   145       -14.931       1.000       -14.931       1.000
   146       -14.931       1.000       -14.931       1.000
   147       -14.931       1.000       -14.931       1.000
   148       -14.931       1.000       -14.931       1.000
   149       -14.931       1.000       -14.931       1.000
   150        -8.712       1.000        -8.712       1.000
   151        -8.496       1.000        -8.496       1.000
   152        -8.496       1.000        -8.496       1.000
   153        -8.496       1.000        -8.496       1.000
   154        -8.496       1.000        -8.496       1.000
   155        -8.496       1.000        -8.496       1.000
   156        -8.496       1.000        -8.496       1.000
   157        -8.318       1.000        -8.318       1.000
   158        -8.318       1.000        -8.318       1.000
   159        -8.318       1.000        -8.318       1.000
   160        -8.318       1.000        -8.318       1.000
   161        -8.318       1.000        -8.318       1.000
   162        -8.318       1.000        -8.318       1.000
   163        -8.009       1.000        -8.009       1.000
   164        -8.009       1.000        -8.009       1.000
   165        -8.009       1.000        -8.009       1.000
   166        -8.009       1.000        -8.009       1.000
   167        -8.009       1.000        -8.009       1.000
   168        -8.009       1.000        -8.009       1.000
   169        -7.766       1.000        -7.766       1.000
   170        -7.766       1.000        -7.766       1.000
   171        -7.766       1.000        -7.766       1.000
   172        -7.766       1.000        -7.766       1.000
   173        -7.766       1.000        -7.766       1.000
   174        -7.766       1.000        -7.766       1.000
   175        -7.672       1.000        -7.672       1.000
   176        -7.672       1.000        -7.672       1.000
   177        -7.672       1.000        -7.672       1.000
   178        -7.672       1.000        -7.672       1.000
   179        -7.672       1.000        -7.672       1.000
   180        -7.672       1.000        -7.672       1.000
   181        -7.334       1.000        -7.334       1.000
   182        -7.334       1.000        -7.334       1.000
   183        -7.334       1.000        -7.334       1.000
   184        -7.334       1.000        -7.334       1.000
   185        -7.334       1.000        -7.334       1.000
   186        -7.334       1.000        -7.334       1.000
   187        -6.863       1.000        -6.863       1.000
   188        -6.863       1.000        -6.863       1.000
   189        -6.863       1.000        -6.863       1.000
   190        -6.863       1.000        -6.863       1.000
   191        -6.863       1.000        -6.863       1.000
   192        -6.863       1.000        -6.863       1.000
   193        -6.745       1.000        -6.745       1.000
   194        -6.745       1.000        -6.745       1.000
   195        -6.745       1.000        -6.745       1.000
   196        -6.745       1.000        -6.745       1.000
   197        -6.745       1.000        -6.745       1.000
   198        -6.745       1.000        -6.745       1.000
   199        -6.737       1.000        -6.737       1.000
   200        -6.737       1.000        -6.737       1.000
   201        -6.737       1.000        -6.737       1.000
   202        -6.737       1.000        -6.737       1.000
   203        -6.737       1.000        -6.737       1.000
   204        -6.737       1.000        -6.737       1.000
   205        -6.545       1.000        -6.545       1.000
   206        -6.545       1.000        -6.545       1.000
   207        -6.545       1.000        -6.545       1.000
   208        -6.545       1.000        -6.545       1.000
   209        -6.545       1.000        -6.545       1.000
   210        -6.545       1.000        -6.545       1.000
   211        -6.245       1.000        -6.245       1.000
   212        -6.245       1.000        -6.245       1.000
   213        -6.245       1.000        -6.245       1.000
   214        -6.245       1.000        -6.245       1.000
   215        -6.245       1.000        -6.245       1.000
   216        -6.245       1.000        -6.245       1.000
   217        -5.883       1.000        -5.883       1.000
   218        -5.883       1.000        -5.883       1.000
   219        -5.883       1.000        -5.883       1.000
   220        -5.883       1.000        -5.883       1.000
   221        -5.883       1.000        -5.883       1.000
   222        -5.883       1.000        -5.883       1.000
   223        -5.790       1.000        -5.790       1.000
   224        -5.790       1.000        -5.790       1.000
   225        -5.790       1.000        -5.790       1.000
   226        -5.790       1.000        -5.790       1.000
   227        -5.790       1.000        -5.790       1.000
   228        -5.790       1.000        -5.790       1.000
   229        -5.705       1.000        -5.705       1.000
   230        -5.705       1.000        -5.705       1.000
   231        -5.705       1.000        -5.705       1.000
   232        -5.705       1.000        -5.705       1.000
   233        -5.705       1.000        -5.705       1.000
   234        -5.705       1.000        -5.705       1.000
   235        -5.573       1.000        -5.573       1.000
   236        -5.573       1.000        -5.573       1.000
   237        -5.573       1.000        -5.573       1.000
   238        -5.573       1.000        -5.573       1.000
   239        -5.573       1.000        -5.573       1.000
   240        -5.573       1.000        -5.573       1.000
   241        -5.333       1.000        -5.333       1.000
   242        -5.333       1.000        -5.333       1.000
   243        -5.333       1.000        -5.333       1.000
   244        -5.333       1.000        -5.333       1.000
   245        -5.333       1.000        -5.333       1.000
   246        -5.333       1.000        -5.333       1.000
   247        -4.897       1.000        -4.897       1.000
   248        -4.897       1.000        -4.897       1.000
   249        -4.897       1.000        -4.897       1.000
   250        -4.897       1.000        -4.897       1.000
   251        -4.897       1.000        -4.897       1.000
   252        -4.897       1.000        -4.897       1.000
   253        -4.815       1.000        -4.815       1.000
   254        -4.815       1.000        -4.815       1.000
   255        -4.680       1.000        -4.680       1.000
   256        -4.657       1.000        -4.657       1.000
   257        -4.657       1.000        -4.657       1.000
   258        -4.657       1.000        -4.657       1.000
   259        -4.657       1.000        -4.657       1.000
   260        -4.657       1.000        -4.657       1.000
   261        -4.657       1.000        -4.657       1.000
   262        -4.554       1.000        -4.554       1.000
   263        -4.554       1.000        -4.554       1.000
   264        -4.554       1.000        -4.554       1.000
   265        -4.554       1.000        -4.554       1.000
   266        -4.554       1.000        -4.554       1.000
   267        -4.554       1.000        -4.554       1.000
   268        -4.446       1.000        -4.446       1.000
   269        -4.446       1.000        -4.446       1.000
   270        -4.446       1.000        -4.446       1.000
   271        -4.446       1.000        -4.446       1.000
   272        -4.446       1.000        -4.446       1.000
   273        -4.446       1.000        -4.446       1.000
   274        -4.275       1.000        -4.275       1.000
   275        -4.275       1.000        -4.275       1.000
   276        -4.275       1.000        -4.275       1.000
   277        -4.275       1.000        -4.275       1.000
   278        -4.274       1.000        -4.274       1.000
   279        -4.274       1.000        -4.274       1.000
   280        -3.972       1.000        -3.972       1.000
   281        -3.972       1.000        -3.972       1.000
   282        -3.972       1.000        -3.972       1.000
   283        -3.972       1.000        -3.972       1.000
   284        -3.972       1.000        -3.972       1.000
   285        -3.972       1.000        -3.972       1.000
   286        -3.906       1.000        -3.906       1.000
   287        -3.906       1.000        -3.906       1.000
   288        -3.906       1.000        -3.906       1.000
   289        -3.906       1.000        -3.906       1.000
   290        -3.906       1.000        -3.906       1.000
   291        -3.906       1.000        -3.906       1.000
   292        -3.660       1.000        -3.660       1.000
   293        -3.660       1.000        -3.660       1.000
   294        -3.660       1.000        -3.660       1.000
   295        -3.660       1.000        -3.660       1.000
   296        -3.660       1.000        -3.660       1.000
   297        -3.660       1.000        -3.660       1.000
   298        -3.652       1.000        -3.652       1.000
   299        -3.652       1.000        -3.652       1.000
   300        -3.455       1.000        -3.455       1.000
   301        -3.455       1.000        -3.455       1.000
   302        -3.455       1.000        -3.455       1.000
   303        -3.455       1.000        -3.455       1.000
   304        -3.455       1.000        -3.455       1.000
   305        -3.455       1.000        -3.455       1.000
   306        -3.179       1.000        -3.179       1.000
   307        -3.179       1.000        -3.179       1.000
   308        -3.179       1.000        -3.179       1.000
   309        -3.179       1.000        -3.179       1.000
   310        -3.179       1.000        -3.179       1.000
   311        -3.179       1.000        -3.179       1.000
   312        -3.166       1.000        -3.166       1.000
   313        -3.166       1.000        -3.166       1.000
   314        -3.166       1.000        -3.166       1.000
   315        -3.166       1.000        -3.166       1.000
   316        -3.166       1.000        -3.166       1.000
   317        -3.166       1.000        -3.166       1.000
   318        -2.833       1.000        -2.833       1.000
   319        -2.749       1.000        -2.749       1.000
   320        -2.749       1.000        -2.749       1.000
   321        -2.749       1.000        -2.749       1.000
   322        -2.749       1.000        -2.749       1.000
   323        -2.749       1.000        -2.749       1.000
   324        -2.749       1.000        -2.749       1.000
   325        -0.680       0.000        -0.680       0.000
   326        -0.680       0.000        -0.680       0.000
   327        -0.680       0.000        -0.680       0.000
   328        -0.680       0.000        -0.680       0.000
   329        -0.680       0.000        -0.680       0.000
   330        -0.680       0.000        -0.680       0.000
   331        -0.443       0.000        -0.443       0.000
   332        -0.443       0.000        -0.443       0.000
   333        -0.443       0.000        -0.443       0.000
   334        -0.443       0.000        -0.443       0.000
   335        -0.443       0.000        -0.443       0.000
   336        -0.443       0.000        -0.443       0.000
   337        -0.341       0.000        -0.341       0.000
   338        -0.341       0.000        -0.341       0.000
   339        -0.341       0.000        -0.341       0.000
   340        -0.341       0.000        -0.341       0.000
   341        -0.341       0.000        -0.341       0.000
   342        -0.341       0.000        -0.341       0.000
   343        -0.052       0.000        -0.052       0.000
   344        -0.052       0.000        -0.052       0.000
   345        -0.052       0.000        -0.052       0.000
   346        -0.052       0.000        -0.052       0.000
   347        -0.052       0.000        -0.052       0.000
   348        -0.052       0.000        -0.052       0.000
   349         0.032       0.000         0.032       0.000
   350         0.032       0.000         0.032       0.000
   351         0.032       0.000         0.032       0.000
   352         0.032       0.000         0.032       0.000
   353         0.032       0.000         0.032       0.000
   354         0.032       0.000         0.032       0.000
   355         0.178       0.000         0.178       0.000
   356         0.178       0.000         0.178       0.000
   357         0.178       0.000         0.178       0.000
   358         0.178       0.000         0.178       0.000
   359         0.178       0.000         0.178       0.000
   360         0.178       0.000         0.178       0.000
   361         0.195       0.000         0.195       0.000
   362         0.195       0.000         0.195       0.000
   363         0.195       0.000         0.195       0.000
   364         0.195       0.000         0.195       0.000
   365         0.195       0.000         0.195       0.000
   366         0.195       0.000         0.195       0.000
   367         0.207       0.000         0.207       0.000
   368         0.207       0.000         0.207       0.000
   369         0.207       0.000         0.207       0.000
   370         0.207       0.000         0.207       0.000
   371         0.207       0.000         0.207       0.000
   372         0.207       0.000         0.207       0.000
   373         0.375       0.000         0.375       0.000
   374         0.375       0.000         0.375       0.000
   375         0.375       0.000         0.375       0.000
   376         0.375       0.000         0.375       0.000
   377         0.375       0.000         0.375       0.000
   378         0.375       0.000         0.375       0.000
   379         0.577       0.000         0.577       0.000
   380         0.577       0.000         0.577       0.000
   381         0.763       0.000         0.763       0.000
   382         0.763       0.000         0.763       0.000
   383         0.782       0.000         0.782       0.000
   384         0.782       0.000         0.782       0.000
   385         0.782       0.000         0.782       0.000
   386         0.782       0.000         0.782       0.000
   387         0.782       0.000         0.782       0.000
   388         0.782       0.000         0.782       0.000
   389         1.355       0.000         1.355       0.000
   390         1.355       0.000         1.355       0.000
   391         1.355       0.000         1.355       0.000
   392         1.355       0.000         1.355       0.000
   393         1.355       0.000         1.355       0.000

kpt = [0.333, 0.000, 0.000], weight = 0.667:
  Band      eig [eV]   occ [0-1]      eig [eV]   occ [0-1]
     0       -76.247       1.000       -76.247       1.000
     1       -76.246       1.000       -76.246       1.000
     2       -76.245       1.000       -76.245       1.000
     3       -76.245       1.000       -76.245       1.000
     4       -76.243       1.000       -76.243       1.000
     5       -76.243       1.000       -76.243       1.000
     6       -76.242       1.000       -76.242       1.000
     7       -76.241       1.000       -76.241       1.000
     8       -76.241       1.000       -76.241       1.000
     9       -76.240       1.000       -76.240       1.000
    10       -76.239       1.000       -76.239       1.000
    11       -76.239       1.000       -76.239       1.000
    12       -76.239       1.000       -76.239       1.000
    13       -76.239       1.000       -76.239       1.000
    14       -76.238       1.000       -76.238       1.000
    15       -76.238       1.000       -76.238       1.000
    16       -76.237       1.000       -76.237       1.000
    17       -76.237       1.000       -76.237       1.000
    18       -76.237       1.000       -76.237       1.000
    19       -76.237       1.000       -76.237       1.000
    20       -76.237       1.000       -76.237       1.000
    21       -76.237       1.000       -76.237       1.000
    22       -76.237       1.000       -76.237       1.000
    23       -76.236       1.000       -76.236       1.000
    24       -76.236       1.000       -76.236       1.000
    25       -40.869       1.000       -40.869       1.000
    26       -40.859       1.000       -40.859       1.000
    27       -40.859       1.000       -40.859       1.000
    28       -40.857       1.000       -40.857       1.000
    29       -40.857       1.000       -40.857       1.000
    30       -40.839       1.000       -40.839       1.000
    31       -40.839       1.000       -40.839       1.000
    32       -40.831       1.000       -40.831       1.000
    33       -40.831       1.000       -40.831       1.000
    34       -40.826       1.000       -40.826       1.000
    35       -40.826       1.000       -40.826       1.000
    36       -40.825       1.000       -40.825       1.000
    37       -40.825       1.000       -40.825       1.000
    38       -40.813       1.000       -40.813       1.000
    39       -40.812       1.000       -40.812       1.000
    40       -40.812       1.000       -40.812       1.000
    41       -40.775       1.000       -40.775       1.000
    42       -40.775       1.000       -40.775       1.000
    43       -40.767       1.000       -40.767       1.000
    44       -40.767       1.000       -40.767       1.000
    45       -40.766       1.000       -40.766       1.000
    46       -40.763       1.000       -40.763       1.000
    47       -40.757       1.000       -40.757       1.000
    48       -40.752       1.000       -40.752       1.000
    49       -40.752       1.000       -40.752       1.000
    50       -40.745       1.000       -40.745       1.000
    51       -40.745       1.000       -40.745       1.000
    52       -40.743       1.000       -40.743       1.000
    53       -40.743       1.000       -40.743       1.000
    54       -40.740       1.000       -40.740       1.000
    55       -40.736       1.000       -40.736       1.000
    56       -40.736       1.000       -40.736       1.000
    57       -40.736       1.000       -40.736       1.000
    58       -40.736       1.000       -40.736       1.000
    59       -40.731       1.000       -40.731       1.000
    60       -40.728       1.000       -40.728       1.000
    61       -40.728       1.000       -40.728       1.000
    62       -40.726       1.000       -40.726       1.000
    63       -40.726       1.000       -40.726       1.000
    64       -40.722       1.000       -40.722       1.000
    65       -40.722       1.000       -40.722       1.000
    66       -40.721       1.000       -40.721       1.000
    67       -40.721       1.000       -40.721       1.000
    68       -40.721       1.000       -40.721       1.000
    69       -40.721       1.000       -40.721       1.000
    70       -40.720       1.000       -40.720       1.000
    71       -40.718       1.000       -40.718       1.000
    72       -40.718       1.000       -40.718       1.000
    73       -40.717       1.000       -40.717       1.000
    74       -40.717       1.000       -40.717       1.000
    75       -40.714       1.000       -40.714       1.000
    76       -40.714       1.000       -40.714       1.000
    77       -40.714       1.000       -40.714       1.000
    78       -40.714       1.000       -40.714       1.000
    79       -40.700       1.000       -40.700       1.000
    80       -40.700       1.000       -40.700       1.000
    81       -40.695       1.000       -40.695       1.000
    82       -40.695       1.000       -40.695       1.000
    83       -40.694       1.000       -40.694       1.000
    84       -40.694       1.000       -40.694       1.000
    85       -40.690       1.000       -40.690       1.000
    86       -40.687       1.000       -40.687       1.000
    87       -40.687       1.000       -40.687       1.000
    88       -40.680       1.000       -40.680       1.000
    89       -40.680       1.000       -40.680       1.000
    90       -40.676       1.000       -40.676       1.000
    91       -40.674       1.000       -40.674       1.000
    92       -40.665       1.000       -40.665       1.000
    93       -40.663       1.000       -40.663       1.000
    94       -40.663       1.000       -40.663       1.000
    95       -40.651       1.000       -40.651       1.000
    96       -40.651       1.000       -40.651       1.000
    97       -40.645       1.000       -40.645       1.000
    98       -40.643       1.000       -40.643       1.000
    99       -40.637       1.000       -40.637       1.000
   100       -17.240       1.000       -17.240       1.000
   101       -17.041       1.000       -17.041       1.000
   102       -16.851       1.000       -16.851       1.000
   103       -16.851       1.000       -16.851       1.000
   104       -16.497       1.000       -16.497       1.000
   105       -16.497       1.000       -16.497       1.000
   106       -16.335       1.000       -16.335       1.000
   107       -16.178       1.000       -16.178       1.000
   108       -16.178       1.000       -16.178       1.000
   109       -15.988       1.000       -15.988       1.000
   110       -15.911       1.000       -15.911       1.000
   111       -15.888       1.000       -15.888       1.000
   112       -15.793       1.000       -15.793       1.000
   113       -15.793       1.000       -15.793       1.000
   114       -15.777       1.000       -15.777       1.000
   115       -15.777       1.000       -15.777       1.000
   116       -15.679       1.000       -15.679       1.000
   117       -15.679       1.000       -15.679       1.000
   118       -15.617       1.000       -15.617       1.000
   119       -15.617       1.000       -15.617       1.000
   120       -15.538       1.000       -15.538       1.000
   121       -15.458       1.000       -15.458       1.000
   122       -15.458       1.000       -15.458       1.000
   123       -15.457       1.000       -15.457       1.000
   124       -15.457       1.000       -15.457       1.000
   125       -15.366       1.000       -15.366       1.000
   126       -15.366       1.000       -15.366       1.000
   127       -15.333       1.000       -15.333       1.000
   128       -15.302       1.000       -15.302       1.000
   129       -15.264       1.000       -15.264       1.000
   130       -15.264       1.000       -15.264       1.000
   131       -15.222       1.000       -15.222       1.000
   132       -15.222       1.000       -15.222       1.000
   133       -15.209       1.000       -15.209       1.000
   134       -15.209       1.000       -15.209       1.000
   135       -15.190       1.000       -15.190       1.000
   136       -15.190       1.000       -15.190       1.000
   137       -15.106       1.000       -15.106       1.000
   138       -15.106       1.000       -15.106       1.000
   139       -15.079       1.000       -15.079       1.000
   140       -15.079       1.000       -15.079       1.000
   141       -15.054       1.000       -15.054       1.000
   142       -15.027       1.000       -15.027       1.000
   143       -15.027       1.000       -15.027       1.000
   144       -14.998       1.000       -14.998       1.000
   145       -14.998       1.000       -14.998       1.000
   146       -14.978       1.000       -14.978       1.000
   147       -14.978       1.000       -14.978       1.000
   148       -14.893       1.000       -14.893       1.000
   149       -14.893       1.000       -14.893       1.000
   150        -8.822       1.000        -8.822       1.000
   151        -8.636       1.000        -8.636       1.000
   152        -8.636       1.000        -8.636       1.000
   153        -8.625       1.000        -8.625       1.000
   154        -8.575       1.000        -8.575       1.000
   155        -8.575       1.000        -8.575       1.000
   156        -8.375       1.000        -8.375       1.000
   157        -8.230       1.000        -8.230       1.000
   158        -8.230       1.000        -8.230       1.000
   159        -8.201       1.000        -8.201       1.000
   160        -8.201       1.000        -8.201       1.000
   161        -8.142       1.000        -8.142       1.000
   162        -8.142       1.000        -8.142       1.000
   163        -7.992       1.000        -7.992       1.000
   164        -7.992       1.000        -7.992       1.000
   165        -7.983       1.000        -7.983       1.000
   166        -7.983       1.000        -7.983       1.000
   167        -7.972       1.000        -7.972       1.000
   168        -7.853       1.000        -7.853       1.000
   169        -7.853       1.000        -7.853       1.000
   170        -7.835       1.000        -7.835       1.000
   171        -7.835       1.000        -7.835       1.000
   172        -7.763       1.000        -7.763       1.000
   173        -7.763       1.000        -7.763       1.000
   174        -7.692       1.000        -7.692       1.000
   175        -7.650       1.000        -7.650       1.000
   176        -7.650       1.000        -7.650       1.000
   177        -7.634       1.000        -7.634       1.000
   178        -7.634       1.000        -7.634       1.000
   179        -7.598       1.000        -7.598       1.000
   180        -7.515       1.000        -7.515       1.000
   181        -7.515       1.000        -7.515       1.000
   182        -7.506       1.000        -7.506       1.000
   183        -7.506       1.000        -7.506       1.000
   184        -7.263       1.000        -7.263       1.000
   185        -7.263       1.000        -7.263       1.000
   186        -7.120       1.000        -7.120       1.000
   187        -7.120       1.000        -7.120       1.000
   188        -6.982       1.000        -6.982       1.000
   189        -6.982       1.000        -6.982       1.000
   190        -6.909       1.000        -6.909       1.000
   191        -6.878       1.000        -6.878       1.000
   192        -6.878       1.000        -6.878       1.000
   193        -6.868       1.000        -6.868       1.000
   194        -6.861       1.000        -6.861       1.000
   195        -6.831       1.000        -6.831       1.000
   196        -6.831       1.000        -6.831       1.000
   197        -6.790       1.000        -6.790       1.000
   198        -6.790       1.000        -6.790       1.000
   199        -6.689       1.000        -6.689       1.000
   200        -6.680       1.000        -6.680       1.000
   201        -6.680       1.000        -6.680       1.000
   202        -6.639       1.000        -6.639       1.000
   203        -6.639       1.000        -6.639       1.000
   204        -6.606       1.000        -6.606       1.000
   205        -6.606       1.000        -6.606       1.000
   206        -6.604       1.000        -6.604       1.000
   207        -6.604       1.000        -6.604       1.000
   208        -6.602       1.000        -6.602       1.000
   209        -6.602       1.000        -6.602       1.000
   210        -6.527       1.000        -6.527       1.000
   211        -6.527       1.000        -6.527       1.000
   212        -6.281       1.000        -6.281       1.000
   213        -6.263       1.000        -6.263       1.000
   214        -6.263       1.000        -6.263       1.000
   215        -6.120       1.000        -6.120       1.000
   216        -6.120       1.000        -6.120       1.000
   217        -5.982       1.000        -5.982       1.000
   218        -5.982       1.000        -5.982       1.000
   219        -5.973       1.000        -5.973       1.000
   220        -5.973       1.000        -5.973       1.000
   221        -5.911       1.000        -5.911       1.000
   222        -5.911       1.000        -5.911       1.000
   223        -5.840       1.000        -5.840       1.000
   224        -5.840       1.000        -5.840       1.000
   225        -5.822       1.000        -5.822       1.000
   226        -5.822       1.000        -5.822       1.000
   227        -5.708       1.000        -5.708       1.000
   228        -5.708       1.000        -5.708       1.000
   229        -5.691       1.000        -5.691       1.000
   230        -5.691       1.000        -5.691       1.000
   231        -5.580       1.000        -5.580       1.000
   232        -5.580       1.000        -5.580       1.000
   233        -5.557       1.000        -5.557       1.000
   234        -5.538       1.000        -5.538       1.000
   235        -5.538       1.000        -5.538       1.000
   236        -5.508       1.000        -5.508       1.000
   237        -5.508       1.000        -5.508       1.000
   238        -5.467       1.000        -5.467       1.000
   239        -5.467       1.000        -5.467       1.000
   240        -5.444       1.000        -5.444       1.000
   241        -5.420       1.000        -5.420       1.000
   242        -5.420       1.000        -5.420       1.000
   243        -5.330       1.000        -5.330       1.000
   244        -5.330       1.000        -5.330       1.000
   245        -5.210       1.000        -5.210       1.000
   246        -5.117       1.000        -5.117       1.000
   247        -5.022       1.000        -5.022       1.000
   248        -4.956       1.000        -4.956       1.000
   249        -4.956       1.000        -4.956       1.000
   250        -4.837       1.000        -4.837       1.000
   251        -4.812       1.000        -4.812       1.000
   252        -4.769       1.000        -4.769       1.000
   253        -4.769       1.000        -4.769       1.000
   254        -4.748       1.000        -4.748       1.000
   255        -4.722       1.000        -4.722       1.000
   256        -4.722       1.000        -4.722       1.000
   257        -4.665       1.000        -4.665       1.000
   258        -4.665       1.000        -4.665       1.000
   259        -4.613       1.000        -4.613       1.000
   260        -4.576       1.000        -4.576       1.000
   261        -4.576       1.000        -4.576       1.000
   262        -4.558       1.000        -4.558       1.000
   263        -4.548       1.000        -4.548       1.000
   264        -4.548       1.000        -4.548       1.000
   265        -4.535       1.000        -4.535       1.000
   266        -4.535       1.000        -4.535       1.000
   267        -4.520       1.000        -4.520       1.000
   268        -4.520       1.000        -4.520       1.000
   269        -4.430       1.000        -4.430       1.000
   270        -4.430       1.000        -4.430       1.000
   271        -4.421       1.000        -4.421       1.000
   272        -4.413       1.000        -4.413       1.000
   273        -4.413       1.000        -4.413       1.000
   274        -4.384       1.000        -4.384       1.000
   275        -4.384       1.000        -4.384       1.000
   276        -4.258       1.000        -4.258       1.000
   277        -4.258       1.000        -4.258       1.000
   278        -4.196       1.000        -4.196       1.000
   279        -4.192       1.000        -4.192       1.000
   280        -4.192       1.000        -4.192       1.000
   281        -4.133       1.000        -4.133       1.000
   282        -4.133       1.000        -4.133       1.000
   283        -4.104       1.000        -4.104       1.000
   284        -4.104       1.000        -4.104       1.000
   285        -4.071       1.000        -4.071       1.000
   286        -4.047       1.000        -4.047       1.000
   287        -4.047       1.000        -4.047       1.000
   288        -3.951       1.000        -3.951       1.000
   289        -3.844       1.000        -3.844       1.000
   290        -3.844       1.000        -3.844       1.000
   291        -3.809       1.000        -3.809       1.000
   292        -3.809       1.000        -3.809       1.000
   293        -3.771       1.000        -3.771       1.000
   294        -3.710       1.000        -3.710       1.000
   295        -3.674       1.000        -3.674       1.000
   296        -3.659       1.000        -3.659       1.000
   297        -3.624       1.000        -3.624       1.000
   298        -3.624       1.000        -3.624       1.000
   299        -3.622       1.000        -3.622       1.000
   300        -3.497       1.000        -3.497       1.000
   301        -3.495       1.000        -3.495       1.000
   302        -3.358       1.000        -3.358       1.000
   303        -3.304       1.000        -3.304       1.000
   304        -3.304       1.000        -3.304       1.000
   305        -3.301       1.000        -3.301       1.000
   306        -3.301       1.000        -3.301       1.000
   307        -3.276       1.000        -3.276       1.000
   308        -3.276       1.000        -3.276       1.000
   309        -3.207       1.000        -3.207       1.000
   310        -3.207       1.000        -3.207       1.000
   311        -3.153       1.000        -3.153       1.000
   312        -3.153       1.000        -3.153       1.000
   313        -3.059       1.000        -3.059       1.000
   314        -3.059       1.000        -3.059       1.000
   315        -3.051       1.000        -3.051       1.000
   316        -3.051       1.000        -3.051       1.000
   317        -2.934       1.000        -2.934       1.000
   318        -2.929       1.000        -2.929       1.000
   319        -2.929       1.000        -2.929       1.000
   320        -2.867       1.000        -2.867       1.000
   321        -2.867       1.000        -2.867       1.000
   322        -2.849       1.000        -2.849       1.000
   323        -2.607       1.000        -2.607       1.000
   324        -2.607       1.000        -2.607       1.000
   325        -0.718       0.000        -0.718       0.000
   326        -0.718       0.000        -0.718       0.000
   327        -0.589       0.000        -0.589       0.000
   328        -0.589       0.000        -0.589       0.000
   329        -0.581       0.000        -0.581       0.000
   330        -0.581       0.000        -0.581       0.000
   331        -0.556       0.000        -0.556       0.000
   332        -0.556       0.000        -0.556       0.000
   333        -0.472       0.000        -0.472       0.000
   334        -0.409       0.000        -0.409       0.000
   335        -0.409       0.000        -0.409       0.000
   336        -0.357       0.000        -0.357       0.000
   337        -0.357       0.000        -0.357       0.000
   338        -0.322       0.000        -0.322       0.000
   339        -0.322       0.000        -0.322       0.000
   340        -0.284       0.000        -0.284       0.000
   341        -0.284       0.000        -0.284       0.000
   342        -0.274       0.000        -0.274       0.000
   343        -0.106       0.000        -0.106       0.000
   344        -0.106       0.000        -0.106       0.000
   345        -0.101       0.000        -0.101       0.000
   346        -0.097       0.000        -0.097       0.000
   347        -0.070       0.000        -0.070       0.000
   348        -0.070       0.000        -0.070       0.000
   349        -0.022       0.000        -0.022       0.000
   350         0.023       0.000         0.023       0.000
   351         0.033       0.000         0.033       0.000
   352         0.033       0.000         0.033       0.000
   353         0.056       0.000         0.056       0.000
   354         0.056       0.000         0.056       0.000
   355         0.069       0.000         0.069       0.000
   356         0.069       0.000         0.069       0.000
   357         0.101       0.000         0.101       0.000
   358         0.101       0.000         0.101       0.000
   359         0.170       0.000         0.170       0.000
   360         0.182       0.000         0.182       0.000
   361         0.182       0.000         0.182       0.000
   362         0.217       0.000         0.217       0.000
   363         0.217       0.000         0.217       0.000
   364         0.224       0.000         0.224       0.000
   365         0.224       0.000         0.224       0.000
   366         0.239       0.000         0.239       0.000
   367         0.239       0.000         0.239       0.000
   368         0.270       0.000         0.270       0.000
   369         0.270       0.000         0.270       0.000
   370         0.326       0.000         0.326       0.000
   371         0.335       0.000         0.335       0.000
   372         0.335       0.000         0.335       0.000
   373         0.406       0.000         0.406       0.000
   374         0.433       0.000         0.433       0.000
   375         0.441       0.000         0.441       0.000
   376         0.474       0.000         0.474       0.000
   377         0.483       0.000         0.483       0.000
   378         0.483       0.000         0.483       0.000
   379         0.508       0.000         0.508       0.000
   380         0.508       0.000         0.508       0.000
   381         0.561       0.000         0.561       0.000
   382         0.562       0.000         0.562       0.000
   383         0.562       0.000         0.562       0.000
   384         0.562       0.000         0.562       0.000
   385         0.565       0.000         0.565       0.000
   386         0.565       0.000         0.565       0.000
   387         0.671       0.000         0.671       0.000
   388         0.697       0.000         0.697       0.000
   389         0.700       0.000         0.700       0.000
   390         0.843       0.000         0.843       0.000
   391         0.951       0.000         0.951       0.000
   392         0.951       0.000         0.951       0.000
   393         1.002       0.000         1.002       0.000

kpt = [0.333, 0.333, 0.000], weight = 0.222:
  Band      eig [eV]   occ [0-1]      eig [eV]   occ [0-1]
     0       -76.247       1.000       -76.247       1.000
     1       -76.247       1.000       -76.247       1.000
     2       -76.247       1.000       -76.247       1.000
     3       -76.243       1.000       -76.243       1.000
     4       -76.243       1.000       -76.243       1.000
     5       -76.243       1.000       -76.243       1.000
     6       -76.241       1.000       -76.241       1.000
     7       -76.241       1.000       -76.241       1.000
     8       -76.241       1.000       -76.241       1.000
     9       -76.241       1.000       -76.241       1.000
    10       -76.241       1.000       -76.241       1.000
    11       -76.241       1.000       -76.241       1.000
    12       -76.238       1.000       -76.238       1.000
    13       -76.238       1.000       -76.238       1.000
    14       -76.238       1.000       -76.238       1.000
    15       -76.238       1.000       -76.238       1.000
    16       -76.238       1.000       -76.238       1.000
    17       -76.238       1.000       -76.238       1.000
    18       -76.237       1.000       -76.237       1.000
    19       -76.237       1.000       -76.237       1.000
    20       -76.237       1.000       -76.237       1.000
    21       -76.237       1.000       -76.237       1.000
    22       -76.237       1.000       -76.237       1.000
    23       -76.237       1.000       -76.237       1.000
    24       -76.236       1.000       -76.236       1.000
    25       -40.868       1.000       -40.868       1.000
    26       -40.868       1.000       -40.868       1.000
    27       -40.868       1.000       -40.868       1.000
    28       -40.841       1.000       -40.841       1.000
    29       -40.841       1.000       -40.841       1.000
    30       -40.841       1.000       -40.841       1.000
    31       -40.841       1.000       -40.841       1.000
    32       -40.841       1.000       -40.841       1.000
    33       -40.841       1.000       -40.841       1.000
    34       -40.829       1.000       -40.829       1.000
    35       -40.829       1.000       -40.829       1.000
    36       -40.829       1.000       -40.829       1.000
    37       -40.812       1.000       -40.812       1.000
    38       -40.791       1.000       -40.791       1.000
    39       -40.791       1.000       -40.791       1.000
    40       -40.791       1.000       -40.791       1.000
    41       -40.791       1.000       -40.791       1.000
    42       -40.791       1.000       -40.791       1.000
    43       -40.791       1.000       -40.791       1.000
    44       -40.788       1.000       -40.788       1.000
    45       -40.759       1.000       -40.759       1.000
    46       -40.759       1.000       -40.759       1.000
    47       -40.759       1.000       -40.759       1.000
    48       -40.748       1.000       -40.748       1.000
    49       -40.748       1.000       -40.748       1.000
    50       -40.748       1.000       -40.748       1.000
    51       -40.745       1.000       -40.745       1.000
    52       -40.745       1.000       -40.745       1.000
    53       -40.745       1.000       -40.745       1.000
    54       -40.735       1.000       -40.735       1.000
    55       -40.735       1.000       -40.735       1.000
    56       -40.735       1.000       -40.735       1.000
    57       -40.734       1.000       -40.734       1.000
    58       -40.734       1.000       -40.734       1.000
    59       -40.734       1.000       -40.734       1.000
    60       -40.734       1.000       -40.734       1.000
    61       -40.734       1.000       -40.734       1.000
    62       -40.734       1.000       -40.734       1.000
    63       -40.721       1.000       -40.721       1.000
    64       -40.721       1.000       -40.721       1.000
    65       -40.721       1.000       -40.721       1.000
    66       -40.721       1.000       -40.721       1.000
    67       -40.721       1.000       -40.721       1.000
    68       -40.721       1.000       -40.721       1.000
    69       -40.719       1.000       -40.719       1.000
    70       -40.719       1.000       -40.719       1.000
    71       -40.719       1.000       -40.719       1.000
    72       -40.717       1.000       -40.717       1.000
    73       -40.717       1.000       -40.717       1.000
    74       -40.717       1.000       -40.717       1.000
    75       -40.713       1.000       -40.713       1.000
    76       -40.708       1.000       -40.708       1.000
    77       -40.708       1.000       -40.708       1.000
    78       -40.708       1.000       -40.708       1.000
    79       -40.708       1.000       -40.708       1.000
    80       -40.708       1.000       -40.708       1.000
    81       -40.708       1.000       -40.708       1.000
    82       -40.697       1.000       -40.697       1.000
    83       -40.697       1.000       -40.697       1.000
    84       -40.697       1.000       -40.697       1.000
    85       -40.676       1.000       -40.676       1.000
    86       -40.676       1.000       -40.676       1.000
    87       -40.676       1.000       -40.676       1.000
    88       -40.676       1.000       -40.676       1.000
    89       -40.676       1.000       -40.676       1.000
    90       -40.676       1.000       -40.676       1.000
    91       -40.664       1.000       -40.664       1.000
    92       -40.664       1.000       -40.664       1.000
    93       -40.664       1.000       -40.664       1.000
    94       -40.664       1.000       -40.664       1.000
    95       -40.664       1.000       -40.664       1.000
    96       -40.664       1.000       -40.664       1.000
    97       -40.642       1.000       -40.642       1.000
    98       -40.642       1.000       -40.642       1.000
    99       -40.642       1.000       -40.642       1.000
   100       -17.106       1.000       -17.106       1.000
   101       -17.106       1.000       -17.106       1.000
   102       -17.106       1.000       -17.106       1.000
   103       -16.552       1.000       -16.552       1.000
   104       -16.552       1.000       -16.552       1.000
   105       -16.552       1.000       -16.552       1.000
   106       -16.085       1.000       -16.085       1.000
   107       -16.085       1.000       -16.085       1.000
   108       -16.085       1.000       -16.085       1.000
   109       -16.085       1.000       -16.085       1.000
   110       -16.085       1.000       -16.085       1.000
   111       -16.085       1.000       -16.085       1.000
   112       -15.921       1.000       -15.921       1.000
   113       -15.921       1.000       -15.921       1.000
   114       -15.921       1.000       -15.921       1.000
   115       -15.644       1.000       -15.644       1.000
   116       -15.644       1.000       -15.644       1.000
   117       -15.644       1.000       -15.644       1.000
   118       -15.423       1.000       -15.423       1.000
   119       -15.423       1.000       -15.423       1.000
   120       -15.423       1.000       -15.423       1.000
   121       -15.423       1.000       -15.423       1.000
   122       -15.423       1.000       -15.423       1.000
   123       -15.423       1.000       -15.423       1.000
   124       -15.415       1.000       -15.415       1.000
   125       -15.415       1.000       -15.415       1.000
   126       -15.415       1.000       -15.415       1.000
   127       -15.415       1.000       -15.415       1.000
   128       -15.415       1.000       -15.415       1.000
   129       -15.415       1.000       -15.415       1.000
   130       -15.246       1.000       -15.246       1.000
   131       -15.246       1.000       -15.246       1.000
   132       -15.246       1.000       -15.246       1.000
   133       -15.185       1.000       -15.185       1.000
   134       -15.185       1.000       -15.185       1.000
   135       -15.185       1.000       -15.185       1.000
   136       -15.097       1.000       -15.097       1.000
   137       -15.097       1.000       -15.097       1.000
   138       -15.097       1.000       -15.097       1.000
   139       -15.096       1.000       -15.096       1.000
   140       -15.096       1.000       -15.096       1.000
   141       -15.096       1.000       -15.096       1.000
   142       -15.026       1.000       -15.026       1.000
   143       -15.026       1.000       -15.026       1.000
   144       -15.026       1.000       -15.026       1.000
   145       -14.971       1.000       -14.971       1.000
   146       -14.971       1.000       -14.971       1.000
   147       -14.971       1.000       -14.971       1.000
   148       -14.968       1.000       -14.968       1.000
   149       -14.861       1.000       -14.861       1.000
   150        -8.801       1.000        -8.801       1.000
   151        -8.801       1.000        -8.801       1.000
   152        -8.801       1.000        -8.801       1.000
   153        -8.456       1.000        -8.456       1.000
   154        -8.456       1.000        -8.456       1.000
   155        -8.456       1.000        -8.456       1.000
   156        -8.303       1.000        -8.303       1.000
   157        -8.303       1.000        -8.303       1.000
   158        -8.303       1.000        -8.303       1.000
   159        -8.303       1.000        -8.303       1.000
   160        -8.303       1.000        -8.303       1.000
   161        -8.303       1.000        -8.303       1.000
   162        -8.028       1.000        -8.028       1.000
   163        -8.028       1.000        -8.028       1.000
   164        -8.028       1.000        -8.028       1.000
   165        -7.911       1.000        -7.911       1.000
   166        -7.796       1.000        -7.796       1.000
   167        -7.796       1.000        -7.796       1.000
   168        -7.796       1.000        -7.796       1.000
   169        -7.763       1.000        -7.763       1.000
   170        -7.700       1.000        -7.700       1.000
   171        -7.700       1.000        -7.700       1.000
   172        -7.700       1.000        -7.700       1.000
   173        -7.700       1.000        -7.700       1.000
   174        -7.700       1.000        -7.700       1.000
   175        -7.700       1.000        -7.700       1.000
   176        -7.644       1.000        -7.644       1.000
   177        -7.644       1.000        -7.644       1.000
   178        -7.644       1.000        -7.644       1.000
   179        -7.624       1.000        -7.624       1.000
   180        -7.624       1.000        -7.624       1.000
   181        -7.624       1.000        -7.624       1.000
   182        -7.376       1.000        -7.376       1.000
   183        -7.376       1.000        -7.376       1.000
   184        -7.376       1.000        -7.376       1.000
   185        -7.376       1.000        -7.376       1.000
   186        -7.376       1.000        -7.376       1.000
   187        -7.376       1.000        -7.376       1.000
   188        -6.974       1.000        -6.974       1.000
   189        -6.974       1.000        -6.974       1.000
   190        -6.974       1.000        -6.974       1.000
   191        -6.974       1.000        -6.974       1.000
   192        -6.974       1.000        -6.974       1.000
   193        -6.974       1.000        -6.974       1.000
   194        -6.882       1.000        -6.882       1.000
   195        -6.661       1.000        -6.661       1.000
   196        -6.661       1.000        -6.661       1.000
   197        -6.661       1.000        -6.661       1.000
   198        -6.644       1.000        -6.644       1.000
   199        -6.644       1.000        -6.644       1.000
   200        -6.644       1.000        -6.644       1.000
   201        -6.644       1.000        -6.644       1.000
   202        -6.644       1.000        -6.644       1.000
   203        -6.644       1.000        -6.644       1.000
   204        -6.567       1.000        -6.567       1.000
   205        -6.567       1.000        -6.567       1.000
   206        -6.567       1.000        -6.567       1.000
   207        -6.567       1.000        -6.567       1.000
   208        -6.567       1.000        -6.567       1.000
   209        -6.567       1.000        -6.567       1.000
   210        -6.528       1.000        -6.528       1.000
   211        -6.528       1.000        -6.528       1.000
   212        -6.528       1.000        -6.528       1.000
   213        -6.467       1.000        -6.467       1.000
   214        -6.467       1.000        -6.467       1.000
   215        -6.467       1.000        -6.467       1.000
   216        -6.214       1.000        -6.214       1.000
   217        -5.924       1.000        -5.924       1.000
   218        -5.924       1.000        -5.924       1.000
   219        -5.924       1.000        -5.924       1.000
   220        -5.902       1.000        -5.902       1.000
   221        -5.902       1.000        -5.902       1.000
   222        -5.902       1.000        -5.902       1.000
   223        -5.789       1.000        -5.789       1.000
   224        -5.770       1.000        -5.770       1.000
   225        -5.770       1.000        -5.770       1.000
   226        -5.770       1.000        -5.770       1.000
   227        -5.719       1.000        -5.719       1.000
   228        -5.719       1.000        -5.719       1.000
   229        -5.719       1.000        -5.719       1.000
   230        -5.719       1.000        -5.719       1.000
   231        -5.719       1.000        -5.719       1.000
   232        -5.719       1.000        -5.719       1.000
   233        -5.535       1.000        -5.535       1.000
   234        -5.535       1.000        -5.535       1.000
   235        -5.535       1.000        -5.535       1.000
   236        -5.387       1.000        -5.387       1.000
   237        -5.387       1.000        -5.387       1.000
   238        -5.387       1.000        -5.387       1.000
   239        -5.249       1.000        -5.249       1.000
   240        -5.249       1.000        -5.249       1.000
   241        -5.249       1.000        -5.249       1.000
   242        -5.249       1.000        -5.249       1.000
   243        -5.249       1.000        -5.249       1.000
   244        -5.249       1.000        -5.249       1.000
   245        -5.164       1.000        -5.164       1.000
   246        -5.164       1.000        -5.164       1.000
   247        -5.164       1.000        -5.164       1.000
   248        -5.085       1.000        -5.085       1.000
   249        -5.085       1.000        -5.085       1.000
   250        -5.085       1.000        -5.085       1.000
   251        -4.813       1.000        -4.813       1.000
   252        -4.776       1.000        -4.776       1.000
[...]
   126       -15.352       1.000       -15.352       1.000
   127       -15.351       1.000       -15.351       1.000
   128       -15.351       1.000       -15.351       1.000
   129       -15.351       1.000       -15.351       1.000
   130       -15.174       1.000       -15.174       1.000
   131       -15.174       1.000       -15.174       1.000
   132       -15.174       1.000       -15.174       1.000
   133       -15.114       1.000       -15.114       1.000
   134       -15.114       1.000       -15.114       1.000
   135       -15.114       1.000       -15.114       1.000
   136       -15.059       1.000       -15.059       1.000
   137       -15.059       1.000       -15.059       1.000
   138       -15.059       1.000       -15.059       1.000
   139       -15.059       1.000       -15.059       1.000
   140       -15.059       1.000       -15.059       1.000
   141       -15.059       1.000       -15.059       1.000
   142       -14.984       1.000       -14.984       1.000
   143       -14.984       1.000       -14.984       1.000
   144       -14.984       1.000       -14.984       1.000
   145       -14.930       1.000       -14.930       1.000
   146       -14.930       1.000       -14.930       1.000
   147       -14.930       1.000       -14.930       1.000
   148       -14.897       1.000       -14.897       1.000
   149       -14.816       1.000       -14.816       1.000
   150        -8.736       1.000        -8.736       1.000
   151        -8.736       1.000        -8.736       1.000
   152        -8.736       1.000        -8.736       1.000
   153        -8.414       1.000        -8.414       1.000
   154        -8.414       1.000        -8.414       1.000
   155        -8.414       1.000        -8.414       1.000
   156        -8.228       1.000        -8.228       1.000
   157        -8.228       1.000        -8.228       1.000
   158        -8.228       1.000        -8.228       1.000
   159        -8.228       1.000        -8.228       1.000
   160        -8.228       1.000        -8.228       1.000
   161        -8.228       1.000        -8.228       1.000
   162        -7.957       1.000        -7.957       1.000
   163        -7.957       1.000        -7.957       1.000
   164        -7.957       1.000        -7.957       1.000
   165        -7.825       1.000        -7.825       1.000
   166        -7.745       1.000        -7.745       1.000
   167        -7.745       1.000        -7.745       1.000
   168        -7.745       1.000        -7.745       1.000
   169        -7.705       1.000        -7.705       1.000
   170        -7.615       1.000        -7.615       1.000
   171        -7.615       1.000        -7.615       1.000
   172        -7.615       1.000        -7.615       1.000
   173        -7.610       1.000        -7.610       1.000
   174        -7.610       1.000        -7.610       1.000
   175        -7.610       1.000        -7.610       1.000
   176        -7.610       1.000        -7.610       1.000
   177        -7.610       1.000        -7.610       1.000
   178        -7.610       1.000        -7.610       1.000
   179        -7.546       1.000        -7.546       1.000
   180        -7.546       1.000        -7.546       1.000
   181        -7.546       1.000        -7.546       1.000
   182        -7.326       1.000        -7.326       1.000
   183        -7.326       1.000        -7.326       1.000
   184        -7.326       1.000        -7.326       1.000
   185        -7.326       1.000        -7.326       1.000
   186        -7.326       1.000        -7.326       1.000
   187        -7.326       1.000        -7.326       1.000
   188        -6.928       1.000        -6.928       1.000
   189        -6.928       1.000        -6.928       1.000
   190        -6.928       1.000        -6.928       1.000
   191        -6.928       1.000        -6.928       1.000
   192        -6.928       1.000        -6.928       1.000
   193        -6.928       1.000        -6.928       1.000
   194        -6.822       1.000        -6.822       1.000
   195        -6.602       1.000        -6.602       1.000
   196        -6.602       1.000        -6.602       1.000
   197        -6.602       1.000        -6.602       1.000
   198        -6.594       1.000        -6.594       1.000
   199        -6.594       1.000        -6.594       1.000
   200        -6.594       1.000        -6.594       1.000
   201        -6.594       1.000        -6.594       1.000
   202        -6.594       1.000        -6.594       1.000
   203        -6.594       1.000        -6.594       1.000
   204        -6.522       1.000        -6.522       1.000
   205        -6.522       1.000        -6.522       1.000
   206        -6.522       1.000        -6.522       1.000
   207        -6.522       1.000        -6.522       1.000
   208        -6.522       1.000        -6.522       1.000
   209        -6.522       1.000        -6.522       1.000
   210        -6.429       1.000        -6.429       1.000
   211        -6.429       1.000        -6.429       1.000
   212        -6.429       1.000        -6.429       1.000
   213        -6.419       1.000        -6.419       1.000
   214        -6.419       1.000        -6.419       1.000
   215        -6.419       1.000        -6.419       1.000
   216        -6.165       1.000        -6.165       1.000
   217        -5.886       1.000        -5.886       1.000
   218        -5.886       1.000        -5.886       1.000
   219        -5.886       1.000        -5.886       1.000
   220        -5.872       1.000        -5.872       1.000
   221        -5.872       1.000        -5.872       1.000
   222        -5.872       1.000        -5.872       1.000
   223        -5.788       1.000        -5.788       1.000
   224        -5.733       1.000        -5.733       1.000
   225        -5.733       1.000        -5.733       1.000
   226        -5.733       1.000        -5.733       1.000
   227        -5.664       1.000        -5.664       1.000
   228        -5.664       1.000        -5.664       1.000
   229        -5.664       1.000        -5.664       1.000
   230        -5.664       1.000        -5.664       1.000
   231        -5.664       1.000        -5.664       1.000
   232        -5.664       1.000        -5.664       1.000
   233        -5.446       1.000        -5.446       1.000
   234        -5.446       1.000        -5.446       1.000
   235        -5.446       1.000        -5.446       1.000
   236        -5.265       1.000        -5.265       1.000
   237        -5.265       1.000        -5.265       1.000
   238        -5.265       1.000        -5.265       1.000
   239        -5.179       1.000        -5.179       1.000
   240        -5.179       1.000        -5.179       1.000
   241        -5.179       1.000        -5.179       1.000
   242        -5.179       1.000        -5.179       1.000
   243        -5.179       1.000        -5.179       1.000
   244        -5.179       1.000        -5.179       1.000
   245        -5.094       1.000        -5.094       1.000
   246        -5.094       1.000        -5.094       1.000
   247        -5.094       1.000        -5.094       1.000
   248        -5.091       1.000        -5.091       1.000
   249        -5.091       1.000        -5.091       1.000
   250        -5.091       1.000        -5.091       1.000
   251        -4.852       1.000        -4.852       1.000
   252        -4.728       1.000        -4.728       1.000
   253        -4.728       1.000        -4.728       1.000
   254        -4.728       1.000        -4.728       1.000
   255        -4.728       1.000        -4.728       1.000
   256        -4.728       1.000        -4.728       1.000
   257        -4.728       1.000        -4.728       1.000
   258        -4.653       1.000        -4.653       1.000
   259        -4.653       1.000        -4.653       1.000
   260        -4.653       1.000        -4.653       1.000
   261        -4.554       1.000        -4.554       1.000
   262        -4.554       1.000        -4.554       1.000
   263        -4.554       1.000        -4.554       1.000
   264        -4.501       1.000        -4.501       1.000
   265        -4.501       1.000        -4.501       1.000
   266        -4.501       1.000        -4.501       1.000
   267        -4.431       1.000        -4.431       1.000
   268        -4.431       1.000        -4.431       1.000
   269        -4.431       1.000        -4.431       1.000
   270        -4.431       1.000        -4.431       1.000
   271        -4.431       1.000        -4.431       1.000
   272        -4.431       1.000        -4.431       1.000
   273        -4.215       1.000        -4.215       1.000
   274        -4.215       1.000        -4.215       1.000
   275        -4.215       1.000        -4.215       1.000
   276        -4.160       1.000        -4.160       1.000
   277        -4.160       1.000        -4.160       1.000
   278        -4.160       1.000        -4.160       1.000
   279        -4.160       1.000        -4.160       1.000
   280        -4.160       1.000        -4.160       1.000
   281        -4.160       1.000        -4.160       1.000
   282        -4.056       1.000        -4.056       1.000
   283        -4.056       1.000        -4.056       1.000
   284        -4.056       1.000        -4.056       1.000
   285        -4.056       1.000        -4.056       1.000
   286        -4.056       1.000        -4.056       1.000
   287        -4.056       1.000        -4.056       1.000
   288        -3.961       1.000        -3.961       1.000
   289        -3.961       1.000        -3.961       1.000
   290        -3.961       1.000        -3.961       1.000
   291        -3.952       1.000        -3.952       1.000
   292        -3.952       1.000        -3.952       1.000
   293        -3.952       1.000        -3.952       1.000
   294        -3.635       1.000        -3.635       1.000
   295        -3.635       1.000        -3.635       1.000
   296        -3.635       1.000        -3.635       1.000
   297        -3.538       1.000        -3.538       1.000
   298        -3.538       1.000        -3.538       1.000
   299        -3.538       1.000        -3.538       1.000
   300        -3.375       1.000        -3.375       1.000
   301        -3.375       1.000        -3.375       1.000
   302        -3.375       1.000        -3.375       1.000
   303        -3.375       1.000        -3.375       1.000
   304        -3.375       1.000        -3.375       1.000
   305        -3.375       1.000        -3.375       1.000
   306        -3.221       1.000        -3.221       1.000
   307        -3.221       1.000        -3.221       1.000
   308        -3.221       1.000        -3.221       1.000
   309        -3.043       1.000        -3.043       1.000
   310        -3.043       1.000        -3.043       1.000
   311        -3.043       1.000        -3.043       1.000
   312        -3.038       1.000        -3.038       1.000
   313        -3.038       1.000        -3.038       1.000
   314        -3.038       1.000        -3.038       1.000
   315        -3.038       1.000        -3.038       1.000
   316        -3.038       1.000        -3.038       1.000
   317        -3.038       1.000        -3.038       1.000
   318        -2.953       1.000        -2.953       1.000
   319        -2.953       1.000        -2.953       1.000
   320        -2.953       1.000        -2.953       1.000
   321        -2.819       1.000        -2.819       1.000
   322        -2.819       1.000        -2.819       1.000
   323        -2.819       1.000        -2.819       1.000
   324        -2.434       1.000        -2.434       1.000
   325        -0.728       0.000        -0.728       0.000
   326        -0.674       0.000        -0.674       0.000
   327        -0.674       0.000        -0.674       0.000
   328        -0.674       0.000        -0.674       0.000
   329        -0.591       0.000        -0.591       0.000
   330        -0.591       0.000        -0.591       0.000
   331        -0.591       0.000        -0.591       0.000
   332        -0.591       0.000        -0.591       0.000
   333        -0.591       0.000        -0.591       0.000
   334        -0.591       0.000        -0.591       0.000
   335        -0.372       0.000        -0.372       0.000
   336        -0.372       0.000        -0.372       0.000
   337        -0.372       0.000        -0.372       0.000
   338        -0.313       0.000        -0.313       0.000
   339        -0.313       0.000        -0.313       0.000
   340        -0.313       0.000        -0.313       0.000
   341        -0.313       0.000        -0.313       0.000
   342        -0.313       0.000        -0.313       0.000
   343        -0.313       0.000        -0.313       0.000
   344        -0.026       0.000        -0.026       0.000
   345        -0.026       0.000        -0.026       0.000
   346        -0.026       0.000        -0.026       0.000
   347        -0.020       0.000        -0.020       0.000
   348        -0.020       0.000        -0.020       0.000
   349        -0.020       0.000        -0.020       0.000
   350        -0.020       0.000        -0.020       0.000
   351        -0.020       0.000        -0.020       0.000
   352        -0.020       0.000        -0.020       0.000
   353        -0.005       0.000        -0.005       0.000
   354        -0.005       0.000        -0.005       0.000
   355        -0.005       0.000        -0.005       0.000
   356         0.025       0.000         0.025       0.000
   357         0.025       0.000         0.025       0.000
   358         0.025       0.000         0.025       0.000
   359         0.032       0.000         0.032       0.000
   360         0.032       0.000         0.032       0.000
   361         0.032       0.000         0.032       0.000
   362         0.170       0.000         0.170       0.000
   363         0.170       0.000         0.170       0.000
   364         0.170       0.000         0.170       0.000
   365         0.297       0.000         0.297       0.000
   366         0.328       0.000         0.328       0.000
   367         0.328       0.000         0.328       0.000
   368         0.328       0.000         0.328       0.000
   369         0.328       0.000         0.328       0.000
   370         0.328       0.000         0.328       0.000
   371         0.328       0.000         0.328       0.000
   372         0.415       0.000         0.415       0.000
   373         0.415       0.000         0.415       0.000
   374         0.415       0.000         0.415       0.000
   375         0.432       0.000         0.432       0.000
   376         0.432       0.000         0.432       0.000
   377         0.432       0.000         0.432       0.000
   378         0.436       0.000         0.436       0.000
   379         0.436       0.000         0.436       0.000
   380         0.436       0.000         0.436       0.000
   381         0.507       0.000         0.507       0.000
   382         0.507       0.000         0.507       0.000
   383         0.507       0.000         0.507       0.000
   384         0.507       0.000         0.507       0.000
   385         0.507       0.000         0.507       0.000
   386         0.508       0.000         0.508       0.000
   387         0.582       0.000         0.582       0.000
   388         0.582       0.000         0.582       0.000
   389         0.582       0.000         0.582       0.000
   390         0.886       0.000         0.886       0.000
   391         0.893       0.000         0.893       0.000
   392         0.896       0.000         0.896       0.000
   393         1.070       0.000         1.070       0.000

Gap: 1.646 eV
Transition (v -> c):
  (s=0, k=2, n=324, [0.33, 0.33, 0.00]) -> (s=1, k=1, n=325, [0.33, 0.00, 0.00])
Direct/indirect transitions are different
Direct gap: 1.706 eV
Transition at: (s=0->1, k=2, n=324, [0.33, 0.33, 0.00])
vacuum-level: 2.654  # V

Forces: [  # eV/Ang
  [   -0.0000,     0.0000,     0.0000],  # W  0
  [   -0.0003,    -0.0002,     0.0031],  # Se 1
  [   -0.0003,    -0.0002,    -0.0031],  # Se 2
  [    0.0001,    -0.0001,     0.0000],  # W  3
  [   -0.0000,    -0.0000,     0.0032],  # Se 4
  [   -0.0000,    -0.0000,    -0.0032],  # Se 5
  [   -0.0000,     0.0000,     0.0000],  # W  6
  [   -0.0004,     0.0001,     0.0031],  # Se 7
  [   -0.0004,     0.0001,    -0.0031],  # Se 8
  [   -0.0000,    -0.0000,     0.0000],  # W  9
  [   -0.0001,    -0.0004,     0.0031],  # Se 10
  [   -0.0001,    -0.0004,    -0.0031],  # Se 11
  [   -0.0000,     0.0001,     0.0000],  # W  12
  [   -0.0000,     0.0000,     0.0032],  # Se 13
  [   -0.0000,     0.0000,    -0.0032],  # Se 14
  [   -0.0001,    -0.0000,     0.0000],  # W  15
  [    0.0004,    -0.0001,     0.0032],  # Se 16
  [    0.0004,    -0.0001,    -0.0032],  # Se 17
  [   -0.0001,    -0.0001,     0.0000],  # W  18
  [    0.0001,     0.0004,     0.0032],  # Se 19
  [    0.0001,     0.0004,    -0.0032],  # Se 20
  [   -0.0000,    -0.0001,     0.0000],  # W  21
  [    0.0004,     0.0001,     0.0031],  # Se 22
  [    0.0004,     0.0001,    -0.0031],  # Se 23
  [   -0.0002,    -0.0001,     0.0000],  # W  24
  [   -0.0000,    -0.0000,     0.0033],  # Se 25
  [   -0.0000,     0.0000,    -0.0033],  # Se 26
  [   -0.0001,     0.0000,     0.0000],  # W  27
  [    0.0003,     0.0003,     0.0031],  # Se 28
  [    0.0003,     0.0003,    -0.0031],  # Se 29
  [    0.0000,     0.0000,     0.0000],  # W  30
  [    0.0000,    -0.0003,     0.0030],  # Se 31
  [    0.0000,    -0.0003,    -0.0030],  # Se 32
  [    0.0000,     0.0000,     0.0000],  # W  33
  [    0.0001,     0.0000,     0.0032],  # Se 34
  [    0.0001,     0.0000,    -0.0032],  # Se 35
  [    0.0000,     0.0000,     0.0000],  # W  36
  [   -0.0002,     0.0001,     0.0030],  # Se 37
  [   -0.0002,     0.0001,    -0.0030],  # Se 38
  [    0.0002,    -0.0001,     0.0000],  # W  39
  [    0.0001,    -0.0004,     0.0031],  # Se 40
  [    0.0001,    -0.0004,    -0.0031],  # Se 41
  [   -0.0000,     0.0002,     0.0000],  # W  42
  [   -0.0003,     0.0003,     0.0031],  # Se 43
  [   -0.0003,     0.0003,    -0.0031],  # Se 44
  [   -0.0000,     0.0000,     0.0000],  # W  45
  [   -0.0004,    -0.0001,     0.0032],  # Se 46
  [   -0.0004,    -0.0001,    -0.0032],  # Se 47
  [   -0.0000,    -0.0001,     0.0000],  # W  48
  [   -0.0001,     0.0000,     0.0032],  # Se 49
  [   -0.0001,     0.0000,    -0.0032],  # Se 50
  [   -0.0001,     0.0000,     0.0000],  # W  51
  [   -0.0000,    -0.0001,     0.0032],  # Se 52
  [   -0.0000,    -0.0001,    -0.0032],  # Se 53
  [    0.0000,    -0.0000,     0.0000],  # W  54
  [   -0.0003,    -0.0003,     0.0032],  # Se 55
  [   -0.0003,    -0.0003,    -0.0032],  # Se 56
  [    0.0001,     0.0000,     0.0000],  # W  57
  [    0.0000,     0.0000,     0.0032],  # Se 58
  [    0.0000,     0.0000,    -0.0032],  # Se 59
  [    0.0001,    -0.0000,     0.0000],  # W  60
  [    0.0003,    -0.0002,     0.0031],  # Se 61
  [    0.0003,    -0.0002,    -0.0031],  # Se 62
  [   -0.0000,     0.0000,     0.0000],  # W  63
  [   -0.0001,     0.0004,     0.0032],  # Se 64
  [   -0.0001,     0.0004,    -0.0032],  # Se 65
  [    0.0001,     0.0000,     0.0000],  # W  66
  [    0.0002,     0.0001,     0.0030],  # Se 67
  [    0.0002,     0.0001,    -0.0030],  # Se 68
  [    0.0000,    -0.0000,     0.0000],  # W  69
  [    0.0003,    -0.0003,     0.0032],  # Se 70
  [    0.0003,    -0.0003,    -0.0032],  # Se 71
  [    0.0000,     0.0001,     0.0000],  # W  72
  [    0.0000,     0.0004,     0.0031],  # Se 73
  [    0.0000,     0.0004,    -0.0031]]  # Se 74
---

timing:  # [seconds]
  Total:  8787.769  # ━━━━━━━━━━━━━━━━━━━━━━━━━━━━━━━━━━━━━━━━━━━━━━━━━━━━━━━
  Init:     15.808  # 
  SCF:    2129.889  # ━━━━━━━━━━━━━╸
  Forces:   27.945  # 
  Move:     19.811  # 

Max RSS: 2941.820  # MiB
