  ___ ___ ___ _ _ _
 |   |   |_  | | | |
 | | | | | . | | | |
 |__ |  _|___|_____| - 25.7.0
 |___|_|

User:   root@autodl-container-cb134f97cf-3ebc7372
Date:   Fri May 15 09:19:00 2026
Arch:   x86_64
Pid:    751134
CWD:    /root/autodl-tmp/2d-defect-dast
Python: 3.10.20
gpaw:   /root/miniconda3/envs/gpaw-env/lib/python3.10/site-packages/gpaw
_gpaw:  /root/miniconda3/envs/gpaw-env/lib/python3.10/site-packages/
        _gpaw.cpython-310-x86_64-linux-gnu.so
ase:    /root/miniconda3/envs/gpaw-env/lib/python3.10/site-packages/ase (version 3.28.0)
numpy:  /root/miniconda3/envs/gpaw-env/lib/python3.10/site-packages/numpy (version 2.2.6)
scipy:  /root/miniconda3/envs/gpaw-env/lib/python3.10/site-packages/scipy (version 1.15.2)
libxc:  7.0.0
units:  Angstrom and eV
cores: 1
OpenMP: False
OMP_NUM_THREADS: 1

input parameters:
  mode=PW(ecut=500.0),
  kpts=MonkhorstPack(size=array([3, 3, 1])),
  occupations=Occupations(name='fermi-dirac', width=0.05, fixmagmom=False),
  parallel={'gpu': True},
  spinpol=True,
  xc=XC(name='PBE')

environment variables:
  GPAW_CPUPY=False,
  GPAW_MPI4PY=False,
  GPAW_NEW=True,
  GPAW_NO_C_EXTENSION=False,
  GPAW_TRACE=False,
  GPAW_USE_GPUS=True

Diagonalizing LCAO Hamiltonian
Converting LCAO to grid
                                                                           
                                                                           
                                                                           
                                                                           
                   S      S       S       S       S                        
                                                                           
              Mo     SMo     SMo     SMo      Mo    S                      
                       S       S       S       S      S                    
                Mo S    MoS     MoS     MoS     RuS                        
                     S   S   S   S   S   S  S    S  S    S                 
                   Mo     Mo      Mo      Mo      Mo                       
                       S   S   S   S   S   S   S   S  S    S               
                     Mo      Mo     Mo      Mo      Mo                     
                       MoS     MoS     MoS     MoS    Mo S                 
                                                                           
                           S       S       S       S       S               
                                                                           
                                                                           
                                                                           
                                                                           

Atomic positions and initial magnetic moments

Positions:
   0 Mo    -0.000000   -0.000000   16.595000    ( 0.0000,  0.0000,  0.0000)
   1 S      1.590007    0.917991   18.160041    ( 0.0000,  0.0000,  0.0000)
   2 S      1.590007    0.917991   15.029959    ( 0.0000,  0.0000,  0.0000)
   3 Mo    -1.590003    2.753952   16.595000    ( 0.0000,  0.0000,  0.0000)
   4 S      0.000000    3.671947   18.160024    ( 0.0000,  0.0000,  0.0000)
   5 S      0.000000    3.671947   15.029976    ( 0.0000,  0.0000,  0.0000)
   6 Mo    -3.180008    5.507915   16.595000    ( 0.0000,  0.0000,  0.0000)
   7 S     -1.589992    6.425902   18.160030    ( 0.0000,  0.0000,  0.0000)
   8 S     -1.589992    6.425902   15.029970    ( 0.0000,  0.0000,  0.0000)
   9 Mo    -4.770009    8.261879   16.595000    ( 0.0000,  0.0000,  0.0000)
  10 S     -3.180002    9.179879   18.160030    ( 0.0000,  0.0000,  0.0000)
  11 S     -3.180002    9.179879   15.029970    ( 0.0000,  0.0000,  0.0000)
  12 Mo    -6.360009   11.015845   16.595000    ( 0.0000,  0.0000,  0.0000)
  13 S     -4.770001   11.933831   18.160024    ( 0.0000,  0.0000,  0.0000)
  14 S     -4.770001   11.933831   15.029976    ( 0.0000,  0.0000,  0.0000)
  15 Mo     3.179994    0.000007   16.595000    ( 0.0000,  0.0000,  0.0000)
  16 S      4.769993    0.917991   18.160030    ( 0.0000,  0.0000,  0.0000)
  17 S      4.769993    0.917991   15.029970    ( 0.0000,  0.0000,  0.0000)
  18 Mo     1.590003    2.753952   16.595000    ( 0.0000,  0.0000,  0.0000)
  19 S      3.180000    3.671939   18.160030    ( 0.0000,  0.0000,  0.0000)
  20 S      3.180000    3.671939   15.029970    ( 0.0000,  0.0000,  0.0000)
  21 Mo     0.000000    5.507914   16.595000    ( 0.0000,  0.0000,  0.0000)
  22 S      1.589992    6.425902   18.160030    ( 0.0000,  0.0000,  0.0000)
  23 S      1.589992    6.425902   15.029970    ( 0.0000,  0.0000,  0.0000)
  24 Mo    -1.590004    8.261880   16.595000    ( 0.0000,  0.0000,  0.0000)
  25 S     -0.000000    9.179869   18.160025    ( 0.0000,  0.0000,  0.0000)
  26 S      0.000000    9.179869   15.029975    ( 0.0000,  0.0000,  0.0000)
  27 Mo    -3.180007   11.015847   16.595000    ( 0.0000,  0.0000,  0.0000)
  28 S     -1.590009   11.933827   18.160030    ( 0.0000,  0.0000,  0.0000)
  29 S     -1.590009   11.933827   15.029970    ( 0.0000,  0.0000,  0.0000)
  30 Mo     6.359998    0.000010   16.595000    ( 0.0000,  0.0000,  0.0000)
  31 S      7.950000    0.917997   18.160040    ( 0.0000,  0.0000,  0.0000)
  32 S      7.950000    0.917997   15.029960    ( 0.0000,  0.0000,  0.0000)
  33 Mo     4.769996    2.753958   16.595000    ( 0.0000,  0.0000,  0.0000)
  34 S      6.359996    3.671946   18.160029    ( 0.0000,  0.0000,  0.0000)
  35 S      6.359996    3.671946   15.029971    ( 0.0000,  0.0000,  0.0000)
  36 Mo     3.180008    5.507915   16.595000    ( 0.0000,  0.0000,  0.0000)
  37 S      4.770009    6.425903   18.160040    ( 0.0000,  0.0000,  0.0000)
  38 S      4.770009    6.425903   15.029960    ( 0.0000,  0.0000,  0.0000)
  39 Mo     1.590004    8.261880   16.595000    ( 0.0000,  0.0000,  0.0000)
  40 S      3.180002    9.179879   18.160030    ( 0.0000,  0.0000,  0.0000)
  41 S      3.180002    9.179879   15.029970    ( 0.0000,  0.0000,  0.0000)
  42 Mo     0.000000   11.015848   16.595000    ( 0.0000,  0.0000,  0.0000)
  43 S      1.590009   11.933827   18.160030    ( 0.0000,  0.0000,  0.0000)
  44 S      1.590009   11.933827   15.029970    ( 0.0000,  0.0000,  0.0000)
  45 Mo     9.540002    0.000010   16.595000    ( 0.0000,  0.0000,  0.0000)
  46 S     11.130007    0.917991   18.160030    ( 0.0000,  0.0000,  0.0000)
  47 S     11.130007    0.917991   15.029970    ( 0.0000,  0.0000,  0.0000)
  48 Mo     7.950000    2.753954   16.595000    ( 0.0000,  0.0000,  0.0000)
  49 S      9.540004    3.671946   18.160029    ( 0.0000,  0.0000,  0.0000)
  50 S      9.540004    3.671946   15.029971    ( 0.0000,  0.0000,  0.0000)
  51 Mo     6.359994    5.507925   16.595000    ( 0.0000,  0.0000,  0.0000)
  52 S      7.950000    6.425913   18.160029    ( 0.0000,  0.0000,  0.0000)
  53 S      7.950000    6.425913   15.029971    ( 0.0000,  0.0000,  0.0000)
  54 Mo     4.770009    8.261879   16.595000    ( 0.0000,  0.0000,  0.0000)
  55 S      6.360007    9.179874   15.029970    ( 0.0000,  0.0000,  0.0000)
  56 Mo     3.180007   11.015847   16.595000    ( 0.0000,  0.0000,  0.0000)
  57 S      4.770001   11.933831   18.160024    ( 0.0000,  0.0000,  0.0000)
  58 S      4.770001   11.933831   15.029976    ( 0.0000,  0.0000,  0.0000)
  59 Mo    12.720006    0.000007   16.595000    ( 0.0000,  0.0000,  0.0000)
  60 S     14.309993    0.917991   18.160041    ( 0.0000,  0.0000,  0.0000)
  61 S     14.309993    0.917991   15.029959    ( 0.0000,  0.0000,  0.0000)
  62 Mo    11.130004    2.753958   16.595000    ( 0.0000,  0.0000,  0.0000)
  63 S     12.720000    3.671939   18.160030    ( 0.0000,  0.0000,  0.0000)
  64 S     12.720000    3.671939   15.029970    ( 0.0000,  0.0000,  0.0000)
  65 Mo     9.540006    5.507925   16.595000    ( 0.0000,  0.0000,  0.0000)
  66 S     11.129991    6.425903   18.160040    ( 0.0000,  0.0000,  0.0000)
  67 S     11.129991    6.425903   15.029960    ( 0.0000,  0.0000,  0.0000)
  68 Ru     7.950000    8.261887   16.595000    ( 0.0000,  0.0000,  0.0000)
  69 S      9.539993    9.179874   18.160030    ( 0.0000,  0.0000,  0.0000)
  70 S      9.539993    9.179874   15.029970    ( 0.0000,  0.0000,  0.0000)
  71 Mo     6.360009   11.015845   16.595000    ( 0.0000,  0.0000,  0.0000)
  72 S      7.950000   11.933822   18.160041    ( 0.0000,  0.0000,  0.0000)
  73 S      7.950000   11.933822   15.029959    ( 0.0000,  0.0000,  0.0000)

Unit cell:
           periodic     x           y           z      points  spacing
  1. axis:    yes   15.900000    0.000000    0.000000    84     0.1639
  2. axis:    yes   -7.950000   13.769804    0.000000    84     0.1639
  3. axis:    no     0.000000   -0.000000   33.190000   175     0.1897

  Lengths:  15.900000  15.900000  33.190000
  Angles:   90.000000  90.000000 120.000000

Effective grid spacing dv^(1/3) = 0.1805

symmetry:
  number of symmetries: 1
  rotations: [
    [[ 1,  0,  0], [ 0,  1,  0], [ 0,  0,  1]]]

bz sampling:
  number of bz points: 9
  number of ibz points: 5
  monkhorst-pack size: [3, 3, 1]
  monkhorst-pack shift: [0, 0, 0]
  points and weights: [
    [[  0.00000000,   0.00000000,   0.00000000], 0.11111111],  # 0
    [[  0.00000000,   0.33333333,   0.00000000], 0.22222222],  # 1
    [[  0.33333333,  -0.33333333,   0.00000000], 0.22222222],  # 2
    [[  0.33333333,   0.00000000,   0.00000000], 0.22222222],  # 3
    [[  0.33333333,   0.33333333,   0.00000000], 0.22222222]]  # 4

plane wave coefficients: 184509
cutoff: 500.0 eV

spin-components: 2  # (collinear spins)
bands: 392
spin-degeneracy: 1
dtype: complex128

memory:
    storage: GPU
    wave functions: 11_556_473_600  # bytes  (11_556_473_600 per core)

parallelization:
    kpt:    1
    domain: 1
    band:   1

density:
  valence electrons: 646.0
  components: 2
  grid points: [ 84  84 175]
  charge: 0.0  # |e|

potential:
  grid points: [ 84  84 175]

species:
  Mo:
    name: Molybdenum
    id: 296a29d4664fe6c6f68623909fe0870f
    Z: 42.0
    valence: 14
    core: 28
    charge: 0.0
    file: /root/miniconda3/envs/gpaw-env/lib/python3.10/site-packages/gpaw_data/setups/Mo.PBE.gz
    compensation charges: {type: gauss,
                           rc: 0.38,
                           lmax: 2}
    cutoffs: {filter: 2.16,
              core: 1.42}
    projectors:
      #              energy  rcut
      - 4s(2.00)   -64.307   1.238
      - 5s(1.00)    -4.084   1.238
      - 4p(6.00)   -38.491   1.296
      - 5p(0.00)    -1.044   1.296
      - 4d(5.00)    -3.754   1.296
      -  d          23.458   1.296
  
    # Using partial waves for Mo as LCAO basis

  S:
    name: Sulfur
    id: ca434db9faa07220b7a1d8cb6886b7a9
    Z: 16.0
    valence: 6
    core: 10
    charge: 0.0
    file: /root/miniconda3/envs/gpaw-env/lib/python3.10/site-packages/gpaw_data/setups/S.PBE.gz
    compensation charges: {type: gauss,
                           rc: 0.24,
                           lmax: 2}
    cutoffs: {filter: 1.77,
              core: 1.66}
    projectors:
      #              energy  rcut
      - 3s(2.00)   -17.254   0.974
      - 3p(4.00)    -7.008   0.979
      -  s           9.957   0.974
      -  p          20.203   0.979
      -  d           0.000   0.900
  
    # Using partial waves for S as LCAO basis

  Ru:
    name: Ruthenium
    id: 670232e5f51aeb2542f664849653fb2d
    Z: 44.0
    valence: 16
    core: 28
    charge: 0.0
    file: /root/miniconda3/envs/gpaw-env/lib/python3.10/site-packages/gpaw_data/setups/Ru.PBE.gz
    compensation charges: {type: gauss,
                           rc: 0.39,
                           lmax: 2}
    cutoffs: {filter: 2.16,
              core: 1.30}
    projectors:
      #              energy  rcut
      - 4s(2.00)   -76.316   1.281
      - 5s(1.00)    -4.236   1.281
      - 4p(6.00)   -46.423   1.286
      - 5p(0.00)    -0.913   1.286
      - 4d(7.00)    -5.203   1.254
      -  d          22.008   1.254
  
    # Using partial waves for Ru as LCAO basis

Reference energy: -3298486.243119  # eV

eigensolver:
  {'converge_bands': 'occupied', 'name': 'Davidson', 'niter': 2}
Density mixing:
  Method: difference
  Backend: pulay
  Linear mixing parameter: 0.05
  old densities: 5
  Damping of long wavelength oscillations: 50
occupation numbers:
  Fermi-Dirac:
    width: 0.0500  # eV
  

<gpaw.new.pw.paw_poisson.SlowPAWPoissonSolver object at 0x7f9813fb6260>
xc functional:
  name: PBE with 2 nearest neighbor stencil

convergence criteria:
- Maximum [total energy] change in last 3 cyles: 0.0005 eV / valence electron
- Maximum integral of absolute [dens]ity change: 0.0001 electrons / valence electron
- Maximum integral of absolute [eigenst]ate change: 4e-08 eV^2 / valence electron
maximum number of iterations: 333

     iter     time        total  log10-change:  magmom
                         energy   eigst   dens
iter:   1 09:20:17  -575.975244   +0.57           +0.0000
iter:   2 09:21:14  -568.364001   -0.28  -1.11    +0.0000
iter:   3 09:22:10  -548.841589   -0.48  -1.17    +0.0000
iter:   4 09:23:06  -545.622982   -0.95  -1.31    -0.0000
iter:   5 09:24:02  -544.667148   -1.15  -1.40    +0.0000
iter:   6 09:24:58  -548.552704   -0.87  -1.63    -0.0000
iter:   7 09:25:54  -542.840214   -1.86  -1.62    -0.0000
iter:   8 09:26:50  -543.419682   -1.45  -1.83    -0.0000
iter:   9 09:27:46  -542.867371   -1.81  -1.88    -0.0000
iter:  10 09:28:42  -542.460351   -2.91  -2.24    -0.0000
iter:  11 09:29:38  -542.431619   -3.18  -2.71    -0.0000
iter:  12 09:30:34  -542.431474c  -3.88  -2.74    -0.0000
iter:  13 09:31:30  -542.425812c  -4.44  -2.95    -0.0000
iter:  14 09:32:26  -542.424516c  -4.61  -3.00    -0.0000
iter:  15 09:33:22  -542.425424c  -4.69  -3.13    -0.0000
iter:  16 09:34:18  -542.424213c  -4.59  -3.28    -0.0000
iter:  17 09:35:14  -542.424209c  -5.40  -3.41    -0.0000
iter:  18 09:36:10  -542.423951c  -5.49  -3.45    -0.0000
iter:  19 09:37:06  -542.424794c  -5.03  -3.55    -0.0000
iter:  20 09:38:02  -542.424195c  -5.03  -3.50    -0.0000
iter:  21 09:38:58  -542.424095c  -6.43  -3.81    -0.0000
iter:  22 09:39:54  -542.424044c  -6.18  -3.99    -0.0000
iter:  23 09:40:50  -542.424035c  -6.09  -4.11c   -0.0000
iter:  24 09:41:47  -542.424015c  -6.44  -4.12c   -0.0000
iter:  25 09:42:43  -542.424022c  -7.40c -4.30c   -0.0000
Converged in 25 steps
Energy contributions relative to reference atoms: (reference = -3298486.243119)

kinetic:         -74.475116
coulomb:         -92.848413
zero:             -3.496232
external:          0.000000
xc:             -371.587452
entropy:          -0.033615
spinorbit:         0.000000
----------------------------
Free energy:    -542.440829
Extrapolated:   -542.424022

dipole moment: [414.937557, -308.263355, -0.036908]  # |e|*Ang

total magnetic moment: [0.000000, 0.000000, -0.000000]

local magnetic moments: [
  [ 0.000000,  0.000000, -0.000000],  # Mo 0
  [ 0.000000,  0.000000, -0.000000],  # S  1
  [ 0.000000,  0.000000, -0.000000],  # S  2
  [ 0.000000,  0.000000,  0.000000],  # Mo 3
  [ 0.000000,  0.000000, -0.000000],  # S  4
  [ 0.000000,  0.000000, -0.000000],  # S  5
  [ 0.000000,  0.000000, -0.000000],  # Mo 6
  [ 0.000000,  0.000000, -0.000000],  # S  7
  [ 0.000000,  0.000000, -0.000000],  # S  8
  [ 0.000000,  0.000000,  0.000000],  # Mo 9
  [ 0.000000,  0.000000, -0.000000],  # S  10
  [ 0.000000,  0.000000, -0.000000],  # S  11
  [ 0.000000,  0.000000,  0.000000],  # Mo 12
  [ 0.000000,  0.000000, -0.000000],  # S  13
  [ 0.000000,  0.000000,  0.000000],  # S  14
  [ 0.000000,  0.000000,  0.000000],  # Mo 15
  [ 0.000000,  0.000000, -0.000000],  # S  16
  [ 0.000000,  0.000000, -0.000000],  # S  17
  [ 0.000000,  0.000000, -0.000000],  # Mo 18
  [ 0.000000,  0.000000, -0.000000],  # S  19
  [ 0.000000,  0.000000,  0.000000],  # S  20
  [ 0.000000,  0.000000, -0.000000],  # Mo 21
  [ 0.000000,  0.000000, -0.000000],  # S  22
  [ 0.000000,  0.000000, -0.000000],  # S  23
  [ 0.000000,  0.000000,  0.000000],  # Mo 24
  [ 0.000000,  0.000000,  0.000000],  # S  25
  [ 0.000000,  0.000000,  0.000000],  # S  26
  [ 0.000000,  0.000000,  0.000000],  # Mo 27
  [ 0.000000,  0.000000, -0.000000],  # S  28
  [ 0.000000,  0.000000, -0.000000],  # S  29
  [ 0.000000,  0.000000,  0.000000],  # Mo 30
  [ 0.000000,  0.000000,  0.000000],  # S  31
  [ 0.000000,  0.000000,  0.000000],  # S  32
  [ 0.000000,  0.000000,  0.000000],  # Mo 33
  [ 0.000000,  0.000000, -0.000000],  # S  34
  [ 0.000000,  0.000000, -0.000000],  # S  35
  [ 0.000000,  0.000000, -0.000000],  # Mo 36
  [ 0.000000,  0.000000, -0.000000],  # S  37
  [ 0.000000,  0.000000, -0.000000],  # S  38
  [ 0.000000,  0.000000, -0.000000],  # Mo 39
  [ 0.000000,  0.000000, -0.000000],  # S  40
  [ 0.000000,  0.000000, -0.000000],  # S  41
  [ 0.000000,  0.000000,  0.000000],  # Mo 42
  [ 0.000000,  0.000000, -0.000000],  # S  43
  [ 0.000000,  0.000000, -0.000000],  # S  44
  [ 0.000000,  0.000000,  0.000000],  # Mo 45
  [ 0.000000,  0.000000, -0.000000],  # S  46
  [ 0.000000,  0.000000, -0.000000],  # S  47
  [ 0.000000,  0.000000,  0.000000],  # Mo 48
  [ 0.000000,  0.000000,  0.000000],  # S  49
  [ 0.000000,  0.000000, -0.000000],  # S  50
  [ 0.000000,  0.000000,  0.000000],  # Mo 51
  [ 0.000000,  0.000000, -0.000000],  # S  52
  [ 0.000000,  0.000000, -0.000000],  # S  53
  [ 0.000000,  0.000000, -0.000000],  # Mo 54
  [ 0.000000,  0.000000, -0.000000],  # S  55
  [ 0.000000,  0.000000, -0.000000],  # Mo 56
  [ 0.000000,  0.000000, -0.000000],  # S  57
  [ 0.000000,  0.000000, -0.000000],  # S  58
  [ 0.000000,  0.000000,  0.000000],  # Mo 59
  [ 0.000000,  0.000000, -0.000000],  # S  60
  [ 0.000000,  0.000000, -0.000000],  # S  61
  [ 0.000000,  0.000000, -0.000000],  # Mo 62
  [ 0.000000,  0.000000, -0.000000],  # S  63
  [ 0.000000,  0.000000, -0.000000],  # S  64
  [ 0.000000,  0.000000,  0.000000],  # Mo 65
  [ 0.000000,  0.000000, -0.000000],  # S  66
  [ 0.000000,  0.000000, -0.000000],  # S  67
  [ 0.000000,  0.000000, -0.000000],  # Ru 68
  [ 0.000000,  0.000000, -0.000000],  # S  69
  [ 0.000000,  0.000000, -0.000000],  # S  70
  [ 0.000000,  0.000000,  0.000000],  # Mo 71
  [ 0.000000,  0.000000, -0.000000],  # S  72
  [ 0.000000,  0.000000,  0.000000]]  # S  73


Fermi level: -2.540

kpt = [0.000, 0.000, 0.000], weight = 0.111:
  Band      eig [eV]   occ [0-1]      eig [eV]   occ [0-1]
     0       -75.870       1.000       -75.870       1.000
     1       -64.496       1.000       -64.496       1.000
     2       -64.487       1.000       -64.487       1.000
     3       -64.470       1.000       -64.470       1.000
     4       -64.470       1.000       -64.470       1.000
     5       -64.424       1.000       -64.424       1.000
     6       -64.420       1.000       -64.420       1.000
     7       -64.419       1.000       -64.419       1.000
     8       -64.407       1.000       -64.407       1.000
     9       -64.407       1.000       -64.407       1.000
    10       -64.403       1.000       -64.403       1.000
    11       -64.399       1.000       -64.399       1.000
    12       -64.393       1.000       -64.393       1.000
    13       -64.389       1.000       -64.389       1.000
    14       -64.388       1.000       -64.388       1.000
    15       -64.383       1.000       -64.383       1.000
    16       -64.377       1.000       -64.377       1.000
    17       -64.371       1.000       -64.371       1.000
    18       -64.358       1.000       -64.358       1.000
    19       -64.340       1.000       -64.340       1.000
    20       -64.340       1.000       -64.340       1.000
    21       -64.324       1.000       -64.324       1.000
    22       -64.323       1.000       -64.323       1.000
    23       -64.197       1.000       -64.197       1.000
    24       -64.189       1.000       -64.189       1.000
    25       -46.182       1.000       -46.182       1.000
    26       -45.894       1.000       -45.894       1.000
    27       -45.624       1.000       -45.624       1.000
    28       -38.778       1.000       -38.778       1.000
    29       -38.743       1.000       -38.743       1.000
    30       -38.739       1.000       -38.739       1.000
    31       -38.737       1.000       -38.737       1.000
    32       -38.731       1.000       -38.731       1.000
    33       -38.726       1.000       -38.726       1.000
    34       -38.708       1.000       -38.708       1.000
    35       -38.698       1.000       -38.698       1.000
    36       -38.694       1.000       -38.694       1.000
    37       -38.688       1.000       -38.688       1.000
    38       -38.674       1.000       -38.674       1.000
    39       -38.673       1.000       -38.673       1.000
    40       -38.659       1.000       -38.659       1.000
    41       -38.643       1.000       -38.643       1.000
    42       -38.639       1.000       -38.639       1.000
    43       -38.631       1.000       -38.631       1.000
    44       -38.630       1.000       -38.630       1.000
    45       -38.622       1.000       -38.622       1.000
    46       -38.615       1.000       -38.615       1.000
    47       -38.605       1.000       -38.605       1.000
    48       -38.600       1.000       -38.600       1.000
    49       -38.584       1.000       -38.584       1.000
    50       -38.582       1.000       -38.582       1.000
    51       -38.576       1.000       -38.576       1.000
    52       -38.564       1.000       -38.564       1.000
    53       -38.561       1.000       -38.561       1.000
    54       -38.557       1.000       -38.557       1.000
    55       -38.552       1.000       -38.552       1.000
    56       -38.550       1.000       -38.550       1.000
    57       -38.543       1.000       -38.543       1.000
    58       -38.542       1.000       -38.542       1.000
    59       -38.537       1.000       -38.537       1.000
    60       -38.535       1.000       -38.535       1.000
    61       -38.534       1.000       -38.534       1.000
    62       -38.532       1.000       -38.532       1.000
    63       -38.527       1.000       -38.527       1.000
    64       -38.526       1.000       -38.526       1.000
    65       -38.524       1.000       -38.524       1.000
    66       -38.520       1.000       -38.520       1.000
    67       -38.514       1.000       -38.514       1.000
    68       -38.512       1.000       -38.512       1.000
    69       -38.511       1.000       -38.511       1.000
    70       -38.508       1.000       -38.508       1.000
    71       -38.504       1.000       -38.504       1.000
    72       -38.502       1.000       -38.502       1.000
    73       -38.501       1.000       -38.501       1.000
    74       -38.498       1.000       -38.498       1.000
    75       -38.489       1.000       -38.489       1.000
    76       -38.483       1.000       -38.483       1.000
    77       -38.482       1.000       -38.482       1.000
    78       -38.479       1.000       -38.479       1.000
    79       -38.478       1.000       -38.478       1.000
    80       -38.474       1.000       -38.474       1.000
    81       -38.462       1.000       -38.462       1.000
    82       -38.457       1.000       -38.457       1.000
    83       -38.457       1.000       -38.457       1.000
    84       -38.451       1.000       -38.451       1.000
    85       -38.450       1.000       -38.450       1.000
    86       -38.449       1.000       -38.449       1.000
    87       -38.441       1.000       -38.441       1.000
    88       -38.430       1.000       -38.430       1.000
    89       -38.422       1.000       -38.422       1.000
    90       -38.414       1.000       -38.414       1.000
    91       -38.403       1.000       -38.403       1.000
    92       -38.398       1.000       -38.398       1.000
    93       -38.392       1.000       -38.392       1.000
    94       -38.376       1.000       -38.376       1.000
    95       -38.363       1.000       -38.363       1.000
    96       -38.309       1.000       -38.309       1.000
    97       -38.303       1.000       -38.303       1.000
    98       -38.239       1.000       -38.239       1.000
    99       -38.164       1.000       -38.164       1.000
   100       -17.550       1.000       -17.550       1.000
   101       -17.045       1.000       -17.045       1.000
   102       -17.045       1.000       -17.045       1.000
   103       -17.022       1.000       -17.022       1.000
   104       -17.004       1.000       -17.004       1.000
   105       -16.991       1.000       -16.991       1.000
   106       -16.876       1.000       -16.876       1.000
   107       -16.289       1.000       -16.289       1.000
   108       -16.192       1.000       -16.192       1.000
   109       -16.184       1.000       -16.184       1.000
   110       -16.178       1.000       -16.178       1.000
   111       -16.175       1.000       -16.175       1.000
   112       -16.160       1.000       -16.160       1.000
   113       -16.131       1.000       -16.131       1.000
   114       -16.077       1.000       -16.077       1.000
   115       -16.073       1.000       -16.073       1.000
   116       -16.056       1.000       -16.056       1.000
   117       -16.037       1.000       -16.037       1.000
   118       -16.026       1.000       -16.026       1.000
   119       -15.984       1.000       -15.984       1.000
   120       -15.947       1.000       -15.947       1.000
   121       -15.944       1.000       -15.944       1.000
   122       -15.928       1.000       -15.928       1.000
   123       -15.912       1.000       -15.912       1.000
   124       -15.908       1.000       -15.908       1.000
   125       -15.814       1.000       -15.814       1.000
   126       -15.698       1.000       -15.698       1.000
   127       -15.692       1.000       -15.692       1.000
   128       -15.688       1.000       -15.688       1.000
   129       -15.685       1.000       -15.685       1.000
   130       -15.672       1.000       -15.672       1.000
   131       -15.650       1.000       -15.650       1.000
   132       -15.606       1.000       -15.606       1.000
   133       -15.596       1.000       -15.596       1.000
   134       -15.592       1.000       -15.592       1.000
   135       -15.580       1.000       -15.580       1.000
   136       -15.571       1.000       -15.571       1.000
   137       -15.569       1.000       -15.569       1.000
   138       -15.568       1.000       -15.568       1.000
   139       -15.540       1.000       -15.540       1.000
   140       -15.539       1.000       -15.539       1.000
   141       -15.532       1.000       -15.532       1.000
   142       -15.512       1.000       -15.512       1.000
   143       -15.447       1.000       -15.447       1.000
   144       -15.419       1.000       -15.419       1.000
   145       -15.403       1.000       -15.403       1.000
   146       -15.401       1.000       -15.401       1.000
   147       -15.393       1.000       -15.393       1.000
   148       -15.368       1.000       -15.368       1.000
   149        -9.067       1.000        -9.067       1.000
   150        -9.031       1.000        -9.031       1.000
   151        -9.012       1.000        -9.012       1.000
   152        -9.010       1.000        -9.010       1.000
   153        -8.975       1.000        -8.975       1.000
   154        -8.955       1.000        -8.955       1.000
   155        -8.952       1.000        -8.952       1.000
   156        -8.707       1.000        -8.707       1.000
   157        -8.689       1.000        -8.689       1.000
   158        -8.686       1.000        -8.686       1.000
   159        -8.681       1.000        -8.681       1.000
   160        -8.668       1.000        -8.668       1.000
   161        -8.658       1.000        -8.658       1.000
   162        -8.657       1.000        -8.657       1.000
   163        -8.625       1.000        -8.625       1.000
   164        -8.624       1.000        -8.624       1.000
   165        -8.619       1.000        -8.619       1.000
   166        -8.578       1.000        -8.578       1.000
   167        -8.571       1.000        -8.571       1.000
   168        -8.554       1.000        -8.554       1.000
   169        -8.545       1.000        -8.545       1.000
   170        -8.538       1.000        -8.538       1.000
   171        -8.524       1.000        -8.524       1.000
   172        -8.521       1.000        -8.521       1.000
   173        -8.507       1.000        -8.507       1.000
   174        -8.494       1.000        -8.494       1.000
   175        -8.491       1.000        -8.491       1.000
   176        -8.484       1.000        -8.484       1.000
   177        -8.343       1.000        -8.343       1.000
   178        -8.324       1.000        -8.324       1.000
   179        -8.263       1.000        -8.263       1.000
   180        -8.052       1.000        -8.052       1.000
   181        -8.034       1.000        -8.034       1.000
   182        -8.026       1.000        -8.026       1.000
   183        -8.008       1.000        -8.008       1.000
   184        -7.905       1.000        -7.905       1.000
   185        -7.902       1.000        -7.902       1.000
   186        -7.702       1.000        -7.702       1.000
   187        -7.679       1.000        -7.679       1.000
   188        -7.663       1.000        -7.663       1.000
   189        -7.654       1.000        -7.654       1.000
   190        -7.549       1.000        -7.549       1.000
   191        -7.541       1.000        -7.541       1.000
   192        -7.457       1.000        -7.457       1.000
   193        -7.455       1.000        -7.455       1.000
   194        -7.453       1.000        -7.453       1.000
   195        -7.431       1.000        -7.431       1.000
   196        -7.420       1.000        -7.420       1.000
   197        -7.402       1.000        -7.402       1.000
   198        -7.394       1.000        -7.394       1.000
   199        -7.368       1.000        -7.368       1.000
   200        -7.364       1.000        -7.364       1.000
   201        -7.341       1.000        -7.341       1.000
   202        -7.320       1.000        -7.320       1.000
   203        -7.277       1.000        -7.277       1.000
   204        -7.195       1.000        -7.195       1.000
   205        -7.187       1.000        -7.187       1.000
   206        -7.183       1.000        -7.183       1.000
   207        -7.175       1.000        -7.175       1.000
   208        -7.157       1.000        -7.157       1.000
   209        -7.111       1.000        -7.111       1.000
   210        -7.051       1.000        -7.051       1.000
   211        -7.041       1.000        -7.041       1.000
   212        -7.029       1.000        -7.029       1.000
   213        -6.999       1.000        -6.999       1.000
   214        -6.946       1.000        -6.946       1.000
   215        -6.943       1.000        -6.943       1.000
   216        -6.827       1.000        -6.827       1.000
   217        -6.789       1.000        -6.789       1.000
   218        -6.772       1.000        -6.772       1.000
   219        -6.755       1.000        -6.755       1.000
   220        -6.749       1.000        -6.749       1.000
   221        -6.745       1.000        -6.745       1.000
   222        -6.679       1.000        -6.679       1.000
   223        -6.653       1.000        -6.653       1.000
   224        -6.629       1.000        -6.629       1.000
   225        -6.623       1.000        -6.623       1.000
   226        -6.614       1.000        -6.614       1.000
   227        -6.600       1.000        -6.600       1.000
   228        -6.577       1.000        -6.577       1.000
   229        -6.571       1.000        -6.571       1.000
   230        -6.565       1.000        -6.565       1.000
   231        -6.539       1.000        -6.539       1.000
   232        -6.530       1.000        -6.530       1.000
   233        -6.500       1.000        -6.500       1.000
   234        -6.494       1.000        -6.494       1.000
   235        -6.492       1.000        -6.492       1.000
   236        -6.470       1.000        -6.470       1.000
   237        -6.368       1.000        -6.368       1.000
   238        -6.333       1.000        -6.333       1.000
   239        -6.303       1.000        -6.303       1.000
   240        -6.201       1.000        -6.201       1.000
   241        -6.196       1.000        -6.196       1.000
   242        -6.189       1.000        -6.189       1.000
   243        -6.125       1.000        -6.125       1.000
   244        -6.105       1.000        -6.105       1.000
   245        -6.080       1.000        -6.080       1.000
   246        -5.982       1.000        -5.982       1.000
   247        -5.964       1.000        -5.964       1.000
   248        -5.751       1.000        -5.751       1.000
   249        -5.745       1.000        -5.745       1.000
   250        -5.727       1.000        -5.727       1.000
   251        -5.725       1.000        -5.725       1.000
   252        -5.701       1.000        -5.701       1.000
   253        -5.700       1.000        -5.700       1.000
   254        -5.687       1.000        -5.687       1.000
   255        -5.681       1.000        -5.681       1.000
   256        -5.668       1.000        -5.668       1.000
   257        -5.662       1.000        -5.662       1.000
   258        -5.622       1.000        -5.622       1.000
   259        -5.577       1.000        -5.577       1.000
   260        -5.519       1.000        -5.519       1.000
   261        -5.518       1.000        -5.518       1.000
   262        -5.515       1.000        -5.515       1.000
   263        -5.494       1.000        -5.494       1.000
   264        -5.454       1.000        -5.454       1.000
   265        -5.454       1.000        -5.454       1.000
   266        -5.422       1.000        -5.422       1.000
   267        -5.421       1.000        -5.421       1.000
   268        -5.398       1.000        -5.398       1.000
   269        -5.384       1.000        -5.384       1.000
   270        -5.312       1.000        -5.312       1.000
   271        -5.294       1.000        -5.294       1.000
   272        -5.294       1.000        -5.294       1.000
   273        -5.277       1.000        -5.277       1.000
   274        -5.275       1.000        -5.275       1.000
   275        -5.260       1.000        -5.260       1.000
   276        -5.096       1.000        -5.096       1.000
   277        -5.064       1.000        -5.064       1.000
   278        -5.006       1.000        -5.006       1.000
   279        -4.916       1.000        -4.916       1.000
   280        -4.904       1.000        -4.904       1.000
   281        -4.733       1.000        -4.733       1.000
   282        -4.732       1.000        -4.732       1.000
   283        -4.725       1.000        -4.725       1.000
   284        -4.715       1.000        -4.715       1.000
   285        -4.709       1.000        -4.709       1.000
   286        -4.701       1.000        -4.701       1.000
   287        -4.662       1.000        -4.662       1.000
   288        -4.654       1.000        -4.654       1.000
   289        -4.648       1.000        -4.648       1.000
   290        -4.644       1.000        -4.644       1.000
   291        -4.631       1.000        -4.631       1.000
   292        -4.607       1.000        -4.607       1.000
   293        -4.601       1.000        -4.601       1.000
   294        -4.593       1.000        -4.593       1.000
   295        -4.579       1.000        -4.579       1.000
   296        -4.543       1.000        -4.543       1.000
   297        -4.444       1.000        -4.444       1.000
   298        -4.386       1.000        -4.386       1.000
   299        -4.348       1.000        -4.348       1.000
   300        -4.342       1.000        -4.342       1.000
   301        -4.329       1.000        -4.329       1.000
   302        -4.315       1.000        -4.315       1.000
   303        -4.312       1.000        -4.312       1.000
   304        -4.278       1.000        -4.278       1.000
   305        -4.269       1.000        -4.269       1.000
   306        -4.259       1.000        -4.259       1.000
   307        -4.228       1.000        -4.228       1.000
   308        -4.081       1.000        -4.081       1.000
   309        -3.992       1.000        -3.992       1.000
   310        -3.984       1.000        -3.984       1.000
   311        -3.948       1.000        -3.948       1.000
   312        -3.945       1.000        -3.945       1.000
   313        -3.927       1.000        -3.927       1.000
   314        -3.838       1.000        -3.838       1.000
   315        -3.819       1.000        -3.819       1.000
   316        -3.807       1.000        -3.807       1.000
   317        -3.743       1.000        -3.743       1.000
   318        -3.737       1.000        -3.737       1.000
   319        -3.730       1.000        -3.730       1.000
   320        -3.578       1.000        -3.578       1.000
   321        -3.458       1.000        -3.458       1.000
   322        -2.693       0.955        -2.693       0.955
   323        -2.373       0.035        -2.373       0.035
   324        -1.951       0.000        -1.951       0.000
   325        -1.731       0.000        -1.731       0.000
   326        -1.700       0.000        -1.700       0.000
   327        -1.506       0.000        -1.506       0.000
   328        -1.501       0.000        -1.501       0.000
   329        -1.496       0.000        -1.496       0.000
   330        -1.491       0.000        -1.491       0.000
   331        -1.486       0.000        -1.486       0.000
   332        -1.475       0.000        -1.475       0.000
   333        -1.470       0.000        -1.470       0.000
   334        -1.459       0.000        -1.459       0.000
   335        -1.416       0.000        -1.416       0.000
   336        -1.409       0.000        -1.409       0.000
   337        -1.369       0.000        -1.369       0.000
   338        -1.354       0.000        -1.354       0.000
   339        -1.326       0.000        -1.326       0.000
   340        -1.322       0.000        -1.322       0.000
   341        -1.312       0.000        -1.312       0.000
   342        -1.312       0.000        -1.312       0.000
   343        -1.304       0.000        -1.304       0.000
   344        -1.302       0.000        -1.302       0.000
   345        -1.272       0.000        -1.272       0.000
   346        -1.263       0.000        -1.263       0.000
   347        -1.234       0.000        -1.234       0.000
   348        -1.200       0.000        -1.200       0.000
   349        -1.110       0.000        -1.110       0.000
   350        -1.090       0.000        -1.090       0.000
   351        -1.051       0.000        -1.051       0.000
   352        -1.003       0.000        -1.003       0.000
   353        -1.000       0.000        -1.000       0.000
   354        -0.998       0.000        -0.998       0.000
   355        -0.989       0.000        -0.989       0.000
   356        -0.989       0.000        -0.989       0.000
   357        -0.974       0.000        -0.974       0.000
   358        -0.973       0.000        -0.973       0.000
   359        -0.969       0.000        -0.969       0.000
   360        -0.967       0.000        -0.967       0.000
   361        -0.957       0.000        -0.957       0.000
   362        -0.940       0.000        -0.940       0.000
   363        -0.930       0.000        -0.930       0.000
   364        -0.905       0.000        -0.905       0.000
   365        -0.884       0.000        -0.884       0.000
   366        -0.866       0.000        -0.866       0.000
   367        -0.850       0.000        -0.850       0.000
   368        -0.831       0.000        -0.831       0.000
   369        -0.796       0.000        -0.796       0.000
   370        -0.780       0.000        -0.780       0.000
   371        -0.759       0.000        -0.759       0.000
   372        -0.707       0.000        -0.707       0.000
   373        -0.681       0.000        -0.681       0.000
   374        -0.633       0.000        -0.633       0.000
   375        -0.630       0.000        -0.630       0.000
   376        -0.624       0.000        -0.624       0.000
   377        -0.549       0.000        -0.549       0.000
   378        -0.546       0.000        -0.546       0.000
   379        -0.531       0.000        -0.531       0.000
   380        -0.453       0.000        -0.453       0.000
   381        -0.394       0.000        -0.394       0.000
   382        -0.368       0.000        -0.368       0.000
   383        -0.363       0.000        -0.363       0.000
   384        -0.352       0.000        -0.352       0.000
   385        -0.336       0.000        -0.336       0.000
   386        -0.300       0.000        -0.300       0.000
   387        -0.178       0.000        -0.178       0.000
   388        -0.154       0.000        -0.154       0.000
   389         0.014       0.000         0.014       0.000
   390         0.019       0.000         0.019       0.000
   391         0.034       0.000         0.034       0.000

kpt = [0.000, 0.333, 0.000], weight = 0.222:
  Band      eig [eV]   occ [0-1]      eig [eV]   occ [0-1]
     0       -75.870       1.000       -75.870       1.000
     1       -64.496       1.000       -64.496       1.000
     2       -64.487       1.000       -64.487       1.000
     3       -64.470       1.000       -64.470       1.000
     4       -64.470       1.000       -64.470       1.000
     5       -64.424       1.000       -64.424       1.000
     6       -64.422       1.000       -64.422       1.000
     7       -64.417       1.000       -64.417       1.000
     8       -64.409       1.000       -64.409       1.000
     9       -64.405       1.000       -64.405       1.000
    10       -64.403       1.000       -64.403       1.000
    11       -64.399       1.000       -64.399       1.000
    12       -64.393       1.000       -64.393       1.000
    13       -64.390       1.000       -64.390       1.000
    14       -64.388       1.000       -64.388       1.000
    15       -64.383       1.000       -64.383       1.000
    16       -64.377       1.000       -64.377       1.000
    17       -64.371       1.000       -64.371       1.000
    18       -64.358       1.000       -64.358       1.000
    19       -64.340       1.000       -64.340       1.000
    20       -64.340       1.000       -64.340       1.000
    21       -64.324       1.000       -64.324       1.000
    22       -64.323       1.000       -64.323       1.000
    23       -64.197       1.000       -64.197       1.000
    24       -64.189       1.000       -64.189       1.000
    25       -46.182       1.000       -46.182       1.000
    26       -45.894       1.000       -45.894       1.000
    27       -45.624       1.000       -45.624       1.000
    28       -38.784       1.000       -38.784       1.000
    29       -38.748       1.000       -38.748       1.000
    30       -38.744       1.000       -38.744       1.000
    31       -38.736       1.000       -38.736       1.000
    32       -38.724       1.000       -38.724       1.000
    33       -38.718       1.000       -38.718       1.000
    34       -38.711       1.000       -38.711       1.000
    35       -38.696       1.000       -38.696       1.000
    36       -38.688       1.000       -38.688       1.000
    37       -38.680       1.000       -38.680       1.000
    38       -38.674       1.000       -38.674       1.000
    39       -38.667       1.000       -38.667       1.000
    40       -38.658       1.000       -38.658       1.000
    41       -38.652       1.000       -38.652       1.000
    42       -38.638       1.000       -38.638       1.000
    43       -38.636       1.000       -38.636       1.000
    44       -38.623       1.000       -38.623       1.000
    45       -38.612       1.000       -38.612       1.000
    46       -38.605       1.000       -38.605       1.000
    47       -38.604       1.000       -38.604       1.000
    48       -38.601       1.000       -38.601       1.000
    49       -38.596       1.000       -38.596       1.000
    50       -38.588       1.000       -38.588       1.000
    51       -38.574       1.000       -38.574       1.000
    52       -38.568       1.000       -38.568       1.000
    53       -38.567       1.000       -38.567       1.000
    54       -38.565       1.000       -38.565       1.000
    55       -38.559       1.000       -38.559       1.000
    56       -38.557       1.000       -38.557       1.000
    57       -38.552       1.000       -38.552       1.000
    58       -38.545       1.000       -38.545       1.000
    59       -38.542       1.000       -38.542       1.000
    60       -38.536       1.000       -38.536       1.000
    61       -38.535       1.000       -38.535       1.000
    62       -38.529       1.000       -38.529       1.000
    63       -38.529       1.000       -38.529       1.000
    64       -38.525       1.000       -38.525       1.000
    65       -38.524       1.000       -38.524       1.000
    66       -38.520       1.000       -38.520       1.000
    67       -38.517       1.000       -38.517       1.000
    68       -38.513       1.000       -38.513       1.000
    69       -38.511       1.000       -38.511       1.000
    70       -38.505       1.000       -38.505       1.000
    71       -38.501       1.000       -38.501       1.000
    72       -38.501       1.000       -38.501       1.000
    73       -38.495       1.000       -38.495       1.000
    74       -38.493       1.000       -38.493       1.000
    75       -38.486       1.000       -38.486       1.000
    76       -38.480       1.000       -38.480       1.000
    77       -38.478       1.000       -38.478       1.000
    78       -38.476       1.000       -38.476       1.000
    79       -38.473       1.000       -38.473       1.000
    80       -38.467       1.000       -38.467       1.000
    81       -38.461       1.000       -38.461       1.000
    82       -38.459       1.000       -38.459       1.000
    83       -38.456       1.000       -38.456       1.000
    84       -38.454       1.000       -38.454       1.000
    85       -38.451       1.000       -38.451       1.000
    86       -38.449       1.000       -38.449       1.000
    87       -38.435       1.000       -38.435       1.000
    88       -38.424       1.000       -38.424       1.000
    89       -38.422       1.000       -38.422       1.000
    90       -38.415       1.000       -38.415       1.000
    91       -38.405       1.000       -38.405       1.000
    92       -38.399       1.000       -38.399       1.000
    93       -38.397       1.000       -38.397       1.000
    94       -38.375       1.000       -38.375       1.000
    95       -38.367       1.000       -38.367       1.000
    96       -38.310       1.000       -38.310       1.000
    97       -38.303       1.000       -38.303       1.000
    98       -38.238       1.000       -38.238       1.000
    99       -38.164       1.000       -38.164       1.000
   100       -17.487       1.000       -17.487       1.000
   101       -17.301       1.000       -17.301       1.000
   102       -17.133       1.000       -17.133       1.000
   103       -17.081       1.000       -17.081       1.000
   104       -16.808       1.000       -16.808       1.000
   105       -16.766       1.000       -16.766       1.000
   106       -16.627       1.000       -16.627       1.000
   107       -16.513       1.000       -16.513       1.000
   108       -16.474       1.000       -16.474       1.000
   109       -16.269       1.000       -16.269       1.000
   110       -16.248       1.000       -16.248       1.000
   111       -16.181       1.000       -16.181       1.000
   112       -16.143       1.000       -16.143       1.000
   113       -16.132       1.000       -16.132       1.000
   114       -16.100       1.000       -16.100       1.000
   115       -16.077       1.000       -16.077       1.000
   116       -16.052       1.000       -16.052       1.000
   117       -16.018       1.000       -16.018       1.000
   118       -15.966       1.000       -15.966       1.000
   119       -15.937       1.000       -15.937       1.000
   120       -15.884       1.000       -15.884       1.000
   121       -15.871       1.000       -15.871       1.000
   122       -15.841       1.000       -15.841       1.000
   123       -15.835       1.000       -15.835       1.000
   124       -15.808       1.000       -15.808       1.000
   125       -15.781       1.000       -15.781       1.000
   126       -15.763       1.000       -15.763       1.000
   127       -15.727       1.000       -15.727       1.000
   128       -15.709       1.000       -15.709       1.000
   129       -15.676       1.000       -15.676       1.000
   130       -15.667       1.000       -15.667       1.000
   131       -15.656       1.000       -15.656       1.000
   132       -15.646       1.000       -15.646       1.000
   133       -15.637       1.000       -15.637       1.000
   134       -15.626       1.000       -15.626       1.000
   135       -15.615       1.000       -15.615       1.000
   136       -15.568       1.000       -15.568       1.000
   137       -15.561       1.000       -15.561       1.000
   138       -15.540       1.000       -15.540       1.000
   139       -15.523       1.000       -15.523       1.000
   140       -15.512       1.000       -15.512       1.000
   141       -15.497       1.000       -15.497       1.000
   142       -15.481       1.000       -15.481       1.000
   143       -15.474       1.000       -15.474       1.000
   144       -15.459       1.000       -15.459       1.000
   145       -15.442       1.000       -15.442       1.000
   146       -15.424       1.000       -15.424       1.000
   147       -15.378       1.000       -15.378       1.000
   148       -15.355       1.000       -15.355       1.000
   149        -9.195       1.000        -9.195       1.000
   150        -9.067       1.000        -9.067       1.000
   151        -9.053       1.000        -9.053       1.000
   152        -8.978       1.000        -8.978       1.000
   153        -8.946       1.000        -8.946       1.000
   154        -8.935       1.000        -8.935       1.000
   155        -8.816       1.000        -8.816       1.000
   156        -8.802       1.000        -8.802       1.000
   157        -8.777       1.000        -8.777       1.000
   158        -8.749       1.000        -8.749       1.000
   159        -8.725       1.000        -8.725       1.000
   160        -8.700       1.000        -8.700       1.000
   161        -8.668       1.000        -8.668       1.000
   162        -8.644       1.000        -8.644       1.000
   163        -8.623       1.000        -8.623       1.000
   164        -8.613       1.000        -8.613       1.000
   165        -8.600       1.000        -8.600       1.000
   166        -8.579       1.000        -8.579       1.000
   167        -8.560       1.000        -8.560       1.000
   168        -8.549       1.000        -8.549       1.000
   169        -8.503       1.000        -8.503       1.000
   170        -8.476       1.000        -8.476       1.000
   171        -8.452       1.000        -8.452       1.000
   172        -8.424       1.000        -8.424       1.000
   173        -8.415       1.000        -8.415       1.000
   174        -8.403       1.000        -8.403       1.000
   175        -8.387       1.000        -8.387       1.000
   176        -8.361       1.000        -8.361       1.000
   177        -8.329       1.000        -8.329       1.000
   178        -8.284       1.000        -8.284       1.000
   179        -8.254       1.000        -8.254       1.000
   180        -8.212       1.000        -8.212       1.000
   181        -8.182       1.000        -8.182       1.000
   182        -8.170       1.000        -8.170       1.000
   183        -8.055       1.000        -8.055       1.000
   184        -8.023       1.000        -8.023       1.000
   185        -7.852       1.000        -7.852       1.000
   186        -7.822       1.000        -7.822       1.000
   187        -7.732       1.000        -7.732       1.000
   188        -7.639       1.000        -7.639       1.000
   189        -7.608       1.000        -7.608       1.000
   190        -7.510       1.000        -7.510       1.000
   191        -7.464       1.000        -7.464       1.000
   192        -7.453       1.000        -7.453       1.000
   193        -7.429       1.000        -7.429       1.000
   194        -7.409       1.000        -7.409       1.000
   195        -7.397       1.000        -7.397       1.000
   196        -7.360       1.000        -7.360       1.000
   197        -7.342       1.000        -7.342       1.000
   198        -7.330       1.000        -7.330       1.000
   199        -7.307       1.000        -7.307       1.000
   200        -7.305       1.000        -7.305       1.000
   201        -7.282       1.000        -7.282       1.000
   202        -7.274       1.000        -7.274       1.000
   203        -7.265       1.000        -7.265       1.000
   204        -7.254       1.000        -7.254       1.000
   205        -7.244       1.000        -7.244       1.000
   206        -7.236       1.000        -7.236       1.000
   207        -7.204       1.000        -7.204       1.000
   208        -7.187       1.000        -7.187       1.000
   209        -7.162       1.000        -7.162       1.000
   210        -7.140       1.000        -7.140       1.000
   211        -7.114       1.000        -7.114       1.000
   212        -7.056       1.000        -7.056       1.000
   213        -7.002       1.000        -7.002       1.000
   214        -6.902       1.000        -6.902       1.000
   215        -6.889       1.000        -6.889       1.000
   216        -6.855       1.000        -6.855       1.000
   217        -6.839       1.000        -6.839       1.000
   218        -6.802       1.000        -6.802       1.000
   219        -6.778       1.000        -6.778       1.000
   220        -6.754       1.000        -6.754       1.000
   221        -6.710       1.000        -6.710       1.000
   222        -6.679       1.000        -6.679       1.000
   223        -6.668       1.000        -6.668       1.000
   224        -6.650       1.000        -6.650       1.000
   225        -6.638       1.000        -6.638       1.000
   226        -6.630       1.000        -6.630       1.000
   227        -6.612       1.000        -6.612       1.000
   228        -6.597       1.000        -6.597       1.000
   229        -6.594       1.000        -6.594       1.000
   230        -6.584       1.000        -6.584       1.000
   231        -6.567       1.000        -6.567       1.000
   232        -6.528       1.000        -6.528       1.000
   233        -6.520       1.000        -6.520       1.000
   234        -6.492       1.000        -6.492       1.000
   235        -6.469       1.000        -6.469       1.000
   236        -6.434       1.000        -6.434       1.000
   237        -6.346       1.000        -6.346       1.000
   238        -6.315       1.000        -6.315       1.000
   239        -6.280       1.000        -6.280       1.000
   240        -6.249       1.000        -6.249       1.000
   241        -6.184       1.000        -6.184       1.000
   242        -6.171       1.000        -6.171       1.000
   243        -6.128       1.000        -6.128       1.000
   244        -6.092       1.000        -6.092       1.000
   245        -6.071       1.000        -6.071       1.000
   246        -6.033       1.000        -6.033       1.000
   247        -6.023       1.000        -6.023       1.000
   248        -6.001       1.000        -6.001       1.000
   249        -5.920       1.000        -5.920       1.000
   250        -5.859       1.000        -5.859       1.000
   251        -5.745       1.000        -5.745       1.000
   252        -5.703       1.000        -5.703       1.000
   253        -5.665       1.000        -5.665       1.000
   254        -5.639       1.000        -5.639       1.000
   255        -5.604       1.000        -5.604       1.000
   256        -5.579       1.000        -5.579       1.000
   257        -5.511       1.000        -5.511       1.000
   258        -5.504       1.000        -5.504       1.000
   259        -5.490       1.000        -5.490       1.000
   260        -5.480       1.000        -5.480       1.000
   261        -5.452       1.000        -5.452       1.000
   262        -5.429       1.000        -5.429       1.000
   263        -5.390       1.000        -5.390       1.000
   264        -5.378       1.000        -5.378       1.000
   265        -5.371       1.000        -5.371       1.000
   266        -5.357       1.000        -5.357       1.000
   267        -5.343       1.000        -5.343       1.000
   268        -5.327       1.000        -5.327       1.000
   269        -5.305       1.000        -5.305       1.000
   270        -5.291       1.000        -5.291       1.000
   271        -5.277       1.000        -5.277       1.000
   272        -5.221       1.000        -5.221       1.000
   273        -5.212       1.000        -5.212       1.000
   274        -5.174       1.000        -5.174       1.000
   275        -5.137       1.000        -5.137       1.000
   276        -5.102       1.000        -5.102       1.000
   277        -5.097       1.000        -5.097       1.000
   278        -5.045       1.000        -5.045       1.000
   279        -5.022       1.000        -5.022       1.000
   280        -5.006       1.000        -5.006       1.000
   281        -4.957       1.000        -4.957       1.000
   282        -4.936       1.000        -4.936       1.000
   283        -4.930       1.000        -4.930       1.000
   284        -4.876       1.000        -4.876       1.000
   285        -4.866       1.000        -4.866       1.000
   286        -4.850       1.000        -4.850       1.000
   287        -4.775       1.000        -4.775       1.000
   288        -4.720       1.000        -4.720       1.000
   289        -4.687       1.000        -4.687       1.000
   290        -4.652       1.000        -4.652       1.000
   291        -4.603       1.000        -4.603       1.000
   292        -4.574       1.000        -4.574       1.000
   293        -4.547       1.000        -4.547       1.000
   294        -4.528       1.000        -4.528       1.000
   295        -4.522       1.000        -4.522       1.000
   296        -4.475       1.000        -4.475       1.000
   297        -4.442       1.000        -4.442       1.000
   298        -4.406       1.000        -4.406       1.000
   299        -4.363       1.000        -4.363       1.000
   300        -4.300       1.000        -4.300       1.000
   301        -4.281       1.000        -4.281       1.000
   302        -4.273       1.000        -4.273       1.000
   303        -4.260       1.000        -4.260       1.000
   304        -4.223       1.000        -4.223       1.000
   305        -4.185       1.000        -4.185       1.000
   306        -4.154       1.000        -4.154       1.000
   307        -4.134       1.000        -4.134       1.000
   308        -4.114       1.000        -4.114       1.000
   309        -4.106       1.000        -4.106       1.000
   310        -4.067       1.000        -4.067       1.000
   311        -3.987       1.000        -3.987       1.000
   312        -3.948       1.000        -3.948       1.000
   313        -3.906       1.000        -3.906       1.000
   314        -3.879       1.000        -3.879       1.000
   315        -3.863       1.000        -3.863       1.000
   316        -3.825       1.000        -3.825       1.000
   317        -3.704       1.000        -3.704       1.000
   318        -3.668       1.000        -3.668       1.000
   319        -3.645       1.000        -3.645       1.000
   320        -3.586       1.000        -3.586       1.000
   321        -3.480       1.000        -3.480       1.000
   322        -2.695       0.957        -2.695       0.957
   323        -2.378       0.038        -2.378       0.038
   324        -1.964       0.000        -1.964       0.000
   325        -1.753       0.000        -1.753       0.000
   326        -1.717       0.000        -1.717       0.000
   327        -1.589       0.000        -1.589       0.000
   328        -1.557       0.000        -1.557       0.000
   329        -1.514       0.000        -1.514       0.000
   330        -1.495       0.000        -1.495       0.000
   331        -1.429       0.000        -1.429       0.000
   332        -1.409       0.000        -1.409       0.000
   333        -1.399       0.000        -1.399       0.000
   334        -1.389       0.000        -1.389       0.000
   335        -1.374       0.000        -1.374       0.000
   336        -1.368       0.000        -1.368       0.000
   337        -1.347       0.000        -1.347       0.000
   338        -1.336       0.000        -1.336       0.000
   339        -1.325       0.000        -1.325       0.000
   340        -1.315       0.000        -1.315       0.000
   341        -1.298       0.000        -1.298       0.000
   342        -1.288       0.000        -1.288       0.000
   343        -1.279       0.000        -1.279       0.000
   344        -1.258       0.000        -1.258       0.000
   345        -1.253       0.000        -1.253       0.000
   346        -1.225       0.000        -1.225       0.000
   347        -1.210       0.000        -1.210       0.000
   348        -1.179       0.000        -1.179       0.000
   349        -1.154       0.000        -1.154       0.000
   350        -1.120       0.000        -1.120       0.000
   351        -1.085       0.000        -1.085       0.000
   352        -1.069       0.000        -1.069       0.000
   353        -1.053       0.000        -1.053       0.000
   354        -1.040       0.000        -1.040       0.000
   355        -1.017       0.000        -1.017       0.000
   356        -1.004       0.000        -1.004       0.000
   357        -0.992       0.000        -0.992       0.000
   358        -0.979       0.000        -0.979       0.000
   359        -0.965       0.000        -0.965       0.000
   360        -0.936       0.000        -0.936       0.000
   361        -0.914       0.000        -0.914       0.000
   362        -0.907       0.000        -0.907       0.000
   363        -0.889       0.000        -0.889       0.000
   364        -0.872       0.000        -0.872       0.000
   365        -0.851       0.000        -0.851       0.000
   366        -0.836       0.000        -0.836       0.000
   367        -0.821       0.000        -0.821       0.000
   368        -0.807       0.000        -0.807       0.000
   369        -0.786       0.000        -0.786       0.000
   370        -0.785       0.000        -0.785       0.000
   371        -0.736       0.000        -0.736       0.000
   372        -0.720       0.000        -0.720       0.000
   373        -0.688       0.000        -0.688       0.000
   374        -0.666       0.000        -0.666       0.000
   375        -0.649       0.000        -0.649       0.000
   376        -0.629       0.000        -0.629       0.000
   377        -0.583       0.000        -0.583       0.000
   378        -0.547       0.000        -0.547       0.000
   379        -0.537       0.000        -0.537       0.000
   380        -0.508       0.000        -0.508       0.000
   381        -0.468       0.000        -0.468       0.000
   382        -0.421       0.000        -0.421       0.000
   383        -0.378       0.000        -0.378       0.000
   384        -0.364       0.000        -0.364       0.000
   385        -0.323       0.000        -0.323       0.000
   386        -0.311       0.000        -0.311       0.000
   387        -0.219       0.000        -0.219       0.000
   388        -0.179       0.000        -0.179       0.000
   389        -0.153       0.000        -0.153       0.000
   390        -0.126       0.000        -0.126       0.000
   391        -0.073       0.000        -0.073       0.000

kpt = [0.333, -0.333, 0.000], weight = 0.222:
  Band      eig [eV]   occ [0-1]      eig [eV]   occ [0-1]
     0       -75.870       1.000       -75.870       1.000
     1       -64.496       1.000       -64.496       1.000
     2       -64.487       1.000       -64.487       1.000
     3       -64.470       1.000       -64.470       1.000
     4       -64.470       1.000       -64.470       1.000
     5       -64.424       1.000       -64.424       1.000
     6       -64.420       1.000       -64.420       1.000
     7       -64.419       1.000       -64.419       1.000
     8       -64.407       1.000       -64.407       1.000
     9       -64.407       1.000       -64.407       1.000
    10       -64.403       1.000       -64.403       1.000
    11       -64.399       1.000       -64.399       1.000
    12       -64.393       1.000       -64.393       1.000
    13       -64.390       1.000       -64.390       1.000
    14       -64.387       1.000       -64.387       1.000
    15       -64.383       1.000       -64.383       1.000
    16       -64.377       1.000       -64.377       1.000
    17       -64.371       1.000       -64.371       1.000
    18       -64.358       1.000       -64.358       1.000
    19       -64.340       1.000       -64.340       1.000
    20       -64.340       1.000       -64.340       1.000
    21       -64.324       1.000       -64.324       1.000
    22       -64.323       1.000       -64.323       1.000
    23       -64.197       1.000       -64.197       1.000
    24       -64.189       1.000       -64.189       1.000
    25       -46.182       1.000       -46.182       1.000
    26       -45.894       1.000       -45.894       1.000
    27       -45.624       1.000       -45.624       1.000
    28       -38.779       1.000       -38.779       1.000
    29       -38.753       1.000       -38.753       1.000
    30       -38.743       1.000       -38.743       1.000
    31       -38.739       1.000       -38.739       1.000
    32       -38.734       1.000       -38.734       1.000
    33       -38.726       1.000       -38.726       1.000
    34       -38.702       1.000       -38.702       1.000
    35       -38.690       1.000       -38.690       1.000
    36       -38.683       1.000       -38.683       1.000
    37       -38.680       1.000       -38.680       1.000
    38       -38.671       1.000       -38.671       1.000
    39       -38.664       1.000       -38.664       1.000
    40       -38.659       1.000       -38.659       1.000
    41       -38.646       1.000       -38.646       1.000
    42       -38.640       1.000       -38.640       1.000
    43       -38.638       1.000       -38.638       1.000
    44       -38.623       1.000       -38.623       1.000
    45       -38.613       1.000       -38.613       1.000
    46       -38.604       1.000       -38.604       1.000
    47       -38.604       1.000       -38.604       1.000
    48       -38.599       1.000       -38.599       1.000
    49       -38.589       1.000       -38.589       1.000
    50       -38.588       1.000       -38.588       1.000
    51       -38.579       1.000       -38.579       1.000
    52       -38.575       1.000       -38.575       1.000
    53       -38.569       1.000       -38.569       1.000
    54       -38.566       1.000       -38.566       1.000
    55       -38.564       1.000       -38.564       1.000
    56       -38.561       1.000       -38.561       1.000
    57       -38.554       1.000       -38.554       1.000
    58       -38.549       1.000       -38.549       1.000
    59       -38.543       1.000       -38.543       1.000
    60       -38.536       1.000       -38.536       1.000
    61       -38.535       1.000       -38.535       1.000
    62       -38.535       1.000       -38.535       1.000
    63       -38.529       1.000       -38.529       1.000
    64       -38.525       1.000       -38.525       1.000
    65       -38.520       1.000       -38.520       1.000
    66       -38.518       1.000       -38.518       1.000
    67       -38.515       1.000       -38.515       1.000
    68       -38.513       1.000       -38.513       1.000
    69       -38.511       1.000       -38.511       1.000
    70       -38.503       1.000       -38.503       1.000
    71       -38.501       1.000       -38.501       1.000
    72       -38.498       1.000       -38.498       1.000
    73       -38.494       1.000       -38.494       1.000
    74       -38.492       1.000       -38.492       1.000
    75       -38.488       1.000       -38.488       1.000
    76       -38.481       1.000       -38.481       1.000
    77       -38.478       1.000       -38.478       1.000
    78       -38.476       1.000       -38.476       1.000
    79       -38.475       1.000       -38.475       1.000
    80       -38.466       1.000       -38.466       1.000
    81       -38.462       1.000       -38.462       1.000
    82       -38.458       1.000       -38.458       1.000
    83       -38.456       1.000       -38.456       1.000
    84       -38.456       1.000       -38.456       1.000
    85       -38.446       1.000       -38.446       1.000
    86       -38.443       1.000       -38.443       1.000
    87       -38.433       1.000       -38.433       1.000
    88       -38.427       1.000       -38.427       1.000
    89       -38.424       1.000       -38.424       1.000
    90       -38.417       1.000       -38.417       1.000
    91       -38.405       1.000       -38.405       1.000
    92       -38.399       1.000       -38.399       1.000
    93       -38.391       1.000       -38.391       1.000
    94       -38.385       1.000       -38.385       1.000
    95       -38.364       1.000       -38.364       1.000
    96       -38.310       1.000       -38.310       1.000
    97       -38.303       1.000       -38.303       1.000
    98       -38.239       1.000       -38.239       1.000
    99       -38.164       1.000       -38.164       1.000
   100       -17.489       1.000       -17.489       1.000
   101       -17.290       1.000       -17.290       1.000
   102       -17.135       1.000       -17.135       1.000
   103       -17.095       1.000       -17.095       1.000
   104       -16.799       1.000       -16.799       1.000
   105       -16.767       1.000       -16.767       1.000
   106       -16.631       1.000       -16.631       1.000
   107       -16.505       1.000       -16.505       1.000
   108       -16.472       1.000       -16.472       1.000
   109       -16.267       1.000       -16.267       1.000
   110       -16.250       1.000       -16.250       1.000
   111       -16.169       1.000       -16.169       1.000
   112       -16.157       1.000       -16.157       1.000
   113       -16.138       1.000       -16.138       1.000
   114       -16.103       1.000       -16.103       1.000
   115       -16.093       1.000       -16.093       1.000
   116       -16.052       1.000       -16.052       1.000
   117       -16.015       1.000       -16.015       1.000
   118       -15.952       1.000       -15.952       1.000
   119       -15.939       1.000       -15.939       1.000
   120       -15.891       1.000       -15.891       1.000
   121       -15.862       1.000       -15.862       1.000
   122       -15.841       1.000       -15.841       1.000
   123       -15.826       1.000       -15.826       1.000
   124       -15.805       1.000       -15.805       1.000
   125       -15.785       1.000       -15.785       1.000
   126       -15.756       1.000       -15.756       1.000
   127       -15.727       1.000       -15.727       1.000
   128       -15.711       1.000       -15.711       1.000
   129       -15.684       1.000       -15.684       1.000
   130       -15.680       1.000       -15.680       1.000
   131       -15.653       1.000       -15.653       1.000
   132       -15.639       1.000       -15.639       1.000
   133       -15.633       1.000       -15.633       1.000
   134       -15.624       1.000       -15.624       1.000
   135       -15.619       1.000       -15.619       1.000
   136       -15.579       1.000       -15.579       1.000
   137       -15.548       1.000       -15.548       1.000
   138       -15.543       1.000       -15.543       1.000
   139       -15.522       1.000       -15.522       1.000
   140       -15.511       1.000       -15.511       1.000
   141       -15.499       1.000       -15.499       1.000
   142       -15.484       1.000       -15.484       1.000
   143       -15.470       1.000       -15.470       1.000
   144       -15.460       1.000       -15.460       1.000
   145       -15.437       1.000       -15.437       1.000
   146       -15.431       1.000       -15.431       1.000
   147       -15.377       1.000       -15.377       1.000
   148       -15.353       1.000       -15.353       1.000
   149        -9.186       1.000        -9.186       1.000
   150        -9.070       1.000        -9.070       1.000
   151        -9.050       1.000        -9.050       1.000
   152        -8.983       1.000        -8.983       1.000
   153        -8.962       1.000        -8.962       1.000
   154        -8.939       1.000        -8.939       1.000
   155        -8.819       1.000        -8.819       1.000
   156        -8.788       1.000        -8.788       1.000
   157        -8.769       1.000        -8.769       1.000
   158        -8.752       1.000        -8.752       1.000
   159        -8.723       1.000        -8.723       1.000
   160        -8.686       1.000        -8.686       1.000
   161        -8.673       1.000        -8.673       1.000
   162        -8.651       1.000        -8.651       1.000
   163        -8.624       1.000        -8.624       1.000
   164        -8.605       1.000        -8.605       1.000
   165        -8.605       1.000        -8.605       1.000
   166        -8.592       1.000        -8.592       1.000
   167        -8.561       1.000        -8.561       1.000
   168        -8.553       1.000        -8.553       1.000
   169        -8.493       1.000        -8.493       1.000
   170        -8.477       1.000        -8.477       1.000
   171        -8.445       1.000        -8.445       1.000
   172        -8.426       1.000        -8.426       1.000
   173        -8.420       1.000        -8.420       1.000
   174        -8.403       1.000        -8.403       1.000
   175        -8.382       1.000        -8.382       1.000
   176        -8.364       1.000        -8.364       1.000
   177        -8.337       1.000        -8.337       1.000
   178        -8.271       1.000        -8.271       1.000
   179        -8.255       1.000        -8.255       1.000
   180        -8.209       1.000        -8.209       1.000
   181        -8.178       1.000        -8.178       1.000
   182        -8.168       1.000        -8.168       1.000
   183        -8.069       1.000        -8.069       1.000
   184        -8.009       1.000        -8.009       1.000
   185        -7.860       1.000        -7.860       1.000
   186        -7.827       1.000        -7.827       1.000
   187        -7.735       1.000        -7.735       1.000
   188        -7.635       1.000        -7.635       1.000
   189        -7.607       1.000        -7.607       1.000
   190        -7.505       1.000        -7.505       1.000
   191        -7.469       1.000        -7.469       1.000
   192        -7.460       1.000        -7.460       1.000
   193        -7.427       1.000        -7.427       1.000
   194        -7.419       1.000        -7.419       1.000
   195        -7.367       1.000        -7.367       1.000
   196        -7.346       1.000        -7.346       1.000
   197        -7.343       1.000        -7.343       1.000
   198        -7.322       1.000        -7.322       1.000
   199        -7.307       1.000        -7.307       1.000
   200        -7.302       1.000        -7.302       1.000
   201        -7.283       1.000        -7.283       1.000
   202        -7.281       1.000        -7.281       1.000
   203        -7.271       1.000        -7.271       1.000
   204        -7.257       1.000        -7.257       1.000
   205        -7.244       1.000        -7.244       1.000
   206        -7.241       1.000        -7.241       1.000
   207        -7.208       1.000        -7.208       1.000
   208        -7.201       1.000        -7.201       1.000
   209        -7.163       1.000        -7.163       1.000
   210        -7.152       1.000        -7.152       1.000
   211        -7.115       1.000        -7.115       1.000
   212        -7.051       1.000        -7.051       1.000
   213        -7.000       1.000        -7.000       1.000
   214        -6.908       1.000        -6.908       1.000
   215        -6.887       1.000        -6.887       1.000
   216        -6.853       1.000        -6.853       1.000
   217        -6.848       1.000        -6.848       1.000
   218        -6.802       1.000        -6.802       1.000
   219        -6.778       1.000        -6.778       1.000
   220        -6.745       1.000        -6.745       1.000
   221        -6.706       1.000        -6.706       1.000
   222        -6.692       1.000        -6.692       1.000
   223        -6.661       1.000        -6.661       1.000
   224        -6.645       1.000        -6.645       1.000
   225        -6.638       1.000        -6.638       1.000
   226        -6.615       1.000        -6.615       1.000
   227        -6.613       1.000        -6.613       1.000
   228        -6.608       1.000        -6.608       1.000
   229        -6.598       1.000        -6.598       1.000
   230        -6.587       1.000        -6.587       1.000
   231        -6.563       1.000        -6.563       1.000
   232        -6.543       1.000        -6.543       1.000
   233        -6.505       1.000        -6.505       1.000
   234        -6.485       1.000        -6.485       1.000
   235        -6.484       1.000        -6.484       1.000
   236        -6.429       1.000        -6.429       1.000
   237        -6.350       1.000        -6.350       1.000
   238        -6.308       1.000        -6.308       1.000
   239        -6.269       1.000        -6.269       1.000
   240        -6.257       1.000        -6.257       1.000
   241        -6.182       1.000        -6.182       1.000
   242        -6.157       1.000        -6.157       1.000
   243        -6.137       1.000        -6.137       1.000
   244        -6.072       1.000        -6.072       1.000
   245        -6.071       1.000        -6.071       1.000
   246        -6.036       1.000        -6.036       1.000
   247        -6.021       1.000        -6.021       1.000
   248        -6.018       1.000        -6.018       1.000
   249        -5.936       1.000        -5.936       1.000
   250        -5.844       1.000        -5.844       1.000
   251        -5.736       1.000        -5.736       1.000
   252        -5.725       1.000        -5.725       1.000
   253        -5.650       1.000        -5.650       1.000
   254        -5.617       1.000        -5.617       1.000
   255        -5.616       1.000        -5.616       1.000
   256        -5.601       1.000        -5.601       1.000
[...]
   125       -15.791       1.000       -15.791       1.000
   126       -15.768       1.000       -15.768       1.000
   127       -15.744       1.000       -15.744       1.000
   128       -15.723       1.000       -15.723       1.000
   129       -15.699       1.000       -15.699       1.000
   130       -15.680       1.000       -15.680       1.000
   131       -15.667       1.000       -15.667       1.000
   132       -15.646       1.000       -15.646       1.000
   133       -15.640       1.000       -15.640       1.000
   134       -15.631       1.000       -15.631       1.000
   135       -15.607       1.000       -15.607       1.000
   136       -15.602       1.000       -15.602       1.000
   137       -15.554       1.000       -15.554       1.000
   138       -15.537       1.000       -15.537       1.000
   139       -15.530       1.000       -15.530       1.000
   140       -15.512       1.000       -15.512       1.000
   141       -15.500       1.000       -15.500       1.000
   142       -15.488       1.000       -15.488       1.000
   143       -15.475       1.000       -15.475       1.000
   144       -15.458       1.000       -15.458       1.000
   145       -15.431       1.000       -15.431       1.000
   146       -15.413       1.000       -15.413       1.000
   147       -15.369       1.000       -15.369       1.000
   148       -15.337       1.000       -15.337       1.000
   149        -9.192       1.000        -9.192       1.000
   150        -9.088       1.000        -9.088       1.000
   151        -9.054       1.000        -9.054       1.000
   152        -8.986       1.000        -8.986       1.000
   153        -8.966       1.000        -8.966       1.000
   154        -8.943       1.000        -8.943       1.000
   155        -8.829       1.000        -8.829       1.000
   156        -8.799       1.000        -8.799       1.000
   157        -8.799       1.000        -8.799       1.000
   158        -8.763       1.000        -8.763       1.000
   159        -8.721       1.000        -8.721       1.000
   160        -8.696       1.000        -8.696       1.000
   161        -8.664       1.000        -8.664       1.000
   162        -8.658       1.000        -8.658       1.000
   163        -8.633       1.000        -8.633       1.000
   164        -8.628       1.000        -8.628       1.000
   165        -8.603       1.000        -8.603       1.000
   166        -8.597       1.000        -8.597       1.000
   167        -8.579       1.000        -8.579       1.000
   168        -8.554       1.000        -8.554       1.000
   169        -8.498       1.000        -8.498       1.000
   170        -8.491       1.000        -8.491       1.000
   171        -8.449       1.000        -8.449       1.000
   172        -8.424       1.000        -8.424       1.000
   173        -8.423       1.000        -8.423       1.000
   174        -8.394       1.000        -8.394       1.000
   175        -8.391       1.000        -8.391       1.000
   176        -8.372       1.000        -8.372       1.000
   177        -8.345       1.000        -8.345       1.000
   178        -8.317       1.000        -8.317       1.000
   179        -8.273       1.000        -8.273       1.000
   180        -8.216       1.000        -8.216       1.000
   181        -8.174       1.000        -8.174       1.000
   182        -8.158       1.000        -8.158       1.000
   183        -8.082       1.000        -8.082       1.000
   184        -8.028       1.000        -8.028       1.000
   185        -7.872       1.000        -7.872       1.000
   186        -7.825       1.000        -7.825       1.000
   187        -7.757       1.000        -7.757       1.000
   188        -7.644       1.000        -7.644       1.000
   189        -7.623       1.000        -7.623       1.000
   190        -7.522       1.000        -7.522       1.000
   191        -7.491       1.000        -7.491       1.000
   192        -7.463       1.000        -7.463       1.000
   193        -7.440       1.000        -7.440       1.000
   194        -7.424       1.000        -7.424       1.000
   195        -7.385       1.000        -7.385       1.000
   196        -7.372       1.000        -7.372       1.000
   197        -7.344       1.000        -7.344       1.000
   198        -7.331       1.000        -7.331       1.000
   199        -7.321       1.000        -7.321       1.000
   200        -7.314       1.000        -7.314       1.000
   201        -7.295       1.000        -7.295       1.000
   202        -7.294       1.000        -7.294       1.000
   203        -7.273       1.000        -7.273       1.000
   204        -7.266       1.000        -7.266       1.000
   205        -7.258       1.000        -7.258       1.000
   206        -7.256       1.000        -7.256       1.000
   207        -7.235       1.000        -7.235       1.000
   208        -7.221       1.000        -7.221       1.000
   209        -7.180       1.000        -7.180       1.000
   210        -7.167       1.000        -7.167       1.000
   211        -7.113       1.000        -7.113       1.000
   212        -7.057       1.000        -7.057       1.000
   213        -7.017       1.000        -7.017       1.000
   214        -6.950       1.000        -6.950       1.000
   215        -6.919       1.000        -6.919       1.000
   216        -6.862       1.000        -6.862       1.000
   217        -6.851       1.000        -6.851       1.000
   218        -6.839       1.000        -6.839       1.000
   219        -6.786       1.000        -6.786       1.000
   220        -6.780       1.000        -6.780       1.000
   221        -6.731       1.000        -6.731       1.000
   222        -6.692       1.000        -6.692       1.000
   223        -6.677       1.000        -6.677       1.000
   224        -6.654       1.000        -6.654       1.000
   225        -6.644       1.000        -6.644       1.000
   226        -6.631       1.000        -6.631       1.000
   227        -6.628       1.000        -6.628       1.000
   228        -6.618       1.000        -6.618       1.000
   229        -6.608       1.000        -6.608       1.000
   230        -6.558       1.000        -6.558       1.000
   231        -6.553       1.000        -6.553       1.000
   232        -6.536       1.000        -6.536       1.000
   233        -6.518       1.000        -6.518       1.000
   234        -6.482       1.000        -6.482       1.000
   235        -6.481       1.000        -6.481       1.000
   236        -6.424       1.000        -6.424       1.000
   237        -6.373       1.000        -6.373       1.000
   238        -6.358       1.000        -6.358       1.000
   239        -6.317       1.000        -6.317       1.000
   240        -6.269       1.000        -6.269       1.000
   241        -6.218       1.000        -6.218       1.000
   242        -6.161       1.000        -6.161       1.000
   243        -6.111       1.000        -6.111       1.000
   244        -6.103       1.000        -6.103       1.000
   245        -6.081       1.000        -6.081       1.000
   246        -6.062       1.000        -6.062       1.000
   247        -6.050       1.000        -6.050       1.000
   248        -6.035       1.000        -6.035       1.000
   249        -5.980       1.000        -5.980       1.000
   250        -5.847       1.000        -5.847       1.000
   251        -5.767       1.000        -5.767       1.000
   252        -5.754       1.000        -5.754       1.000
   253        -5.683       1.000        -5.683       1.000
   254        -5.634       1.000        -5.634       1.000
   255        -5.629       1.000        -5.629       1.000
   256        -5.596       1.000        -5.596       1.000
   257        -5.539       1.000        -5.539       1.000
   258        -5.530       1.000        -5.530       1.000
   259        -5.481       1.000        -5.481       1.000
   260        -5.464       1.000        -5.464       1.000
   261        -5.462       1.000        -5.462       1.000
   262        -5.452       1.000        -5.452       1.000
   263        -5.406       1.000        -5.406       1.000
   264        -5.395       1.000        -5.395       1.000
   265        -5.363       1.000        -5.363       1.000
   266        -5.341       1.000        -5.341       1.000
   267        -5.339       1.000        -5.339       1.000
   268        -5.320       1.000        -5.320       1.000
   269        -5.293       1.000        -5.293       1.000
   270        -5.283       1.000        -5.283       1.000
   271        -5.261       1.000        -5.261       1.000
   272        -5.223       1.000        -5.223       1.000
   273        -5.220       1.000        -5.220       1.000
   274        -5.165       1.000        -5.165       1.000
   275        -5.150       1.000        -5.150       1.000
   276        -5.116       1.000        -5.116       1.000
   277        -5.105       1.000        -5.105       1.000
   278        -5.039       1.000        -5.039       1.000
   279        -5.029       1.000        -5.029       1.000
   280        -4.982       1.000        -4.982       1.000
   281        -4.972       1.000        -4.972       1.000
   282        -4.951       1.000        -4.951       1.000
   283        -4.926       1.000        -4.926       1.000
   284        -4.883       1.000        -4.883       1.000
   285        -4.866       1.000        -4.866       1.000
   286        -4.840       1.000        -4.840       1.000
   287        -4.815       1.000        -4.815       1.000
   288        -4.724       1.000        -4.724       1.000
   289        -4.693       1.000        -4.693       1.000
   290        -4.660       1.000        -4.660       1.000
   291        -4.574       1.000        -4.574       1.000
   292        -4.569       1.000        -4.569       1.000
   293        -4.550       1.000        -4.550       1.000
   294        -4.531       1.000        -4.531       1.000
   295        -4.522       1.000        -4.522       1.000
   296        -4.472       1.000        -4.472       1.000
   297        -4.454       1.000        -4.454       1.000
   298        -4.363       1.000        -4.363       1.000
   299        -4.335       1.000        -4.335       1.000
   300        -4.334       1.000        -4.334       1.000
   301        -4.299       1.000        -4.299       1.000
   302        -4.278       1.000        -4.278       1.000
   303        -4.213       1.000        -4.213       1.000
   304        -4.207       1.000        -4.207       1.000
   305        -4.171       1.000        -4.171       1.000
   306        -4.161       1.000        -4.161       1.000
   307        -4.135       1.000        -4.135       1.000
   308        -4.112       1.000        -4.112       1.000
   309        -4.110       1.000        -4.110       1.000
   310        -4.088       1.000        -4.088       1.000
   311        -3.975       1.000        -3.975       1.000
   312        -3.931       1.000        -3.931       1.000
   313        -3.914       1.000        -3.914       1.000
   314        -3.882       1.000        -3.882       1.000
   315        -3.866       1.000        -3.866       1.000
   316        -3.766       1.000        -3.766       1.000
   317        -3.721       1.000        -3.721       1.000
   318        -3.683       1.000        -3.683       1.000
   319        -3.641       1.000        -3.641       1.000
   320        -3.625       1.000        -3.625       1.000
   321        -3.521       1.000        -3.521       1.000
   322        -2.901       0.997        -2.901       0.997
   323        -2.321       0.004        -2.321       0.004
   324        -1.858       0.000        -1.858       0.000
   325        -1.764       0.000        -1.764       0.000
   326        -1.676       0.000        -1.676       0.000
   327        -1.588       0.000        -1.588       0.000
   328        -1.560       0.000        -1.560       0.000
   329        -1.522       0.000        -1.522       0.000
   330        -1.469       0.000        -1.469       0.000
   331        -1.443       0.000        -1.443       0.000
   332        -1.401       0.000        -1.401       0.000
   333        -1.401       0.000        -1.401       0.000
   334        -1.393       0.000        -1.393       0.000
   335        -1.384       0.000        -1.384       0.000
   336        -1.362       0.000        -1.362       0.000
   337        -1.342       0.000        -1.342       0.000
   338        -1.332       0.000        -1.332       0.000
   339        -1.310       0.000        -1.310       0.000
   340        -1.304       0.000        -1.304       0.000
   341        -1.291       0.000        -1.291       0.000
   342        -1.283       0.000        -1.283       0.000
   343        -1.275       0.000        -1.275       0.000
   344        -1.256       0.000        -1.256       0.000
   345        -1.233       0.000        -1.233       0.000
   346        -1.224       0.000        -1.224       0.000
   347        -1.188       0.000        -1.188       0.000
   348        -1.172       0.000        -1.172       0.000
   349        -1.133       0.000        -1.133       0.000
   350        -1.127       0.000        -1.127       0.000
   351        -1.085       0.000        -1.085       0.000
   352        -1.064       0.000        -1.064       0.000
   353        -1.048       0.000        -1.048       0.000
   354        -1.035       0.000        -1.035       0.000
   355        -1.030       0.000        -1.030       0.000
   356        -0.997       0.000        -0.997       0.000
   357        -0.997       0.000        -0.997       0.000
   358        -0.988       0.000        -0.988       0.000
   359        -0.946       0.000        -0.946       0.000
   360        -0.940       0.000        -0.940       0.000
   361        -0.925       0.000        -0.925       0.000
   362        -0.912       0.000        -0.912       0.000
   363        -0.898       0.000        -0.898       0.000
   364        -0.883       0.000        -0.883       0.000
   365        -0.861       0.000        -0.861       0.000
   366        -0.838       0.000        -0.838       0.000
   367        -0.819       0.000        -0.819       0.000
   368        -0.806       0.000        -0.806       0.000
   369        -0.794       0.000        -0.794       0.000
   370        -0.777       0.000        -0.777       0.000
   371        -0.738       0.000        -0.738       0.000
   372        -0.704       0.000        -0.704       0.000
   373        -0.697       0.000        -0.697       0.000
   374        -0.655       0.000        -0.655       0.000
   375        -0.633       0.000        -0.633       0.000
   376        -0.616       0.000        -0.616       0.000
   377        -0.574       0.000        -0.574       0.000
   378        -0.561       0.000        -0.561       0.000
   379        -0.509       0.000        -0.509       0.000
   380        -0.499       0.000        -0.499       0.000
   381        -0.451       0.000        -0.451       0.000
   382        -0.427       0.000        -0.427       0.000
   383        -0.403       0.000        -0.403       0.000
   384        -0.383       0.000        -0.383       0.000
   385        -0.354       0.000        -0.354       0.000
   386        -0.342       0.000        -0.342       0.000
   387        -0.282       0.000        -0.282       0.000
   388        -0.266       0.000        -0.266       0.000
   389        -0.218       0.000        -0.218       0.000
   390        -0.162       0.000        -0.162       0.000
   391        -0.148       0.000        -0.148       0.000
(only showing first 3 out of 5 k-points)

Gap: 0.571 eV
Transition (v -> c):
  (s=1, k=0, n=322, [0.00, 0.00, 0.00]) -> (s=0, k=2, n=323, [0.33, -0.33, 0.00])
Direct/indirect transitions are different
Direct gap: 0.580 eV
Transition at: (s=1->0, k=2, n=322, [0.33, -0.33, 0.00])
vacuum-level: 2.447  # V

Forces: [  # eV/Ang
  [   -0.0029,     0.0003,    -0.0019],  # Mo 0
  [    0.0019,    -0.0028,     0.0011],  # S  1
  [    0.0032,     0.0018,    -0.0004],  # S  2
  [    0.0009,    -0.0013,     0.0042],  # Mo 3
  [    0.0023,    -0.0013,     0.0047],  # S  4
  [    0.0025,    -0.0015,     0.0110],  # S  5
  [   -0.0086,     0.0050,    -0.0002],  # Mo 6
  [   -0.0044,    -0.0010,    -0.0009],  # S  7
  [   -0.0030,    -0.0055,     0.0045],  # S  8
  [    0.0022,     0.0018,    -0.0035],  # Mo 9
  [    0.0099,     0.0039,     0.0038],  # S  10
  [    0.0051,     0.0032,    -0.0069],  # S  11
  [    0.0020,     0.0031,    -0.0046],  # Mo 12
  [    0.0002,     0.0003,     0.0028],  # S  13
  [   -0.0027,    -0.0005,    -0.0051],  # S  14
  [    0.0015,    -0.0027,    -0.0017],  # Mo 15
  [    0.0029,    -0.0017,     0.0020],  # S  16
  [    0.0074,    -0.0043,     0.0035],  # S  17
  [    0.0046,    -0.0026,     0.0046],  # Mo 18
  [    0.0034,    -0.0003,     0.0011],  # S  19
  [    0.0001,    -0.0037,    -0.0004],  # S  20
  [    0.0016,    -0.0002,     0.0042],  # Mo 21
  [    0.0009,     0.0009,     0.0032],  # S  22
  [   -0.0040,     0.0002,    -0.0042],  # S  23
  [   -0.0025,    -0.0001,    -0.0041],  # Mo 24
  [   -0.0051,    -0.0053,    -0.0015],  # S  25
  [   -0.0042,     0.0002,    -0.0008],  # S  26
  [   -0.0035,    -0.0012,    -0.0035],  # Mo 27
  [    0.0024,    -0.0049,    -0.0005],  # S  28
  [    0.0042,    -0.0033,     0.0063],  # S  29
  [    0.0037,    -0.0022,     0.0065],  # Mo 30
  [    0.0055,     0.0003,    -0.0005],  # S  31
  [    0.0050,    -0.0020,     0.0063],  # S  32
  [    0.0031,     0.0001,    -0.0017],  # Mo 33
  [   -0.0002,    -0.0003,     0.0028],  # S  34
  [   -0.0009,     0.0026,    -0.0051],  # S  35
  [   -0.0017,     0.0024,    -0.0019],  # Mo 36
  [   -0.0015,    -0.0035,     0.0050],  # S  37
  [   -0.0035,     0.0050,    -0.0044],  # S  38
  [   -0.0036,    -0.0030,    -0.0023],  # Mo 39
  [   -0.0008,     0.0017,    -0.0049],  # S  40
  [    0.0026,    -0.0011,     0.0039],  # S  41
  [    0.0034,    -0.0036,     0.0021],  # Mo 42
  [    0.0016,    -0.0009,     0.0036],  # S  43
  [   -0.0023,     0.0013,     0.0002],  # S  44
  [    0.0049,    -0.0012,     0.0021],  # Mo 45
  [    0.0020,     0.0071,    -0.0015],  # S  46
  [   -0.0023,     0.0035,    -0.0008],  # S  47
  [   -0.0007,     0.0037,    -0.0035],  # Mo 48
  [    0.0016,    -0.0105,     0.0038],  # S  49
  [   -0.0003,    -0.0060,    -0.0069],  # S  50
  [   -0.0017,    -0.0032,    -0.0046],  # Mo 51
  [   -0.0015,     0.0001,    -0.0009],  # S  52
  [   -0.0010,     0.0035,     0.0014],  # S  53
  [   -0.0008,     0.0037,    -0.0024],  # Mo 54
  [    0.0021,    -0.0012,     0.0005],  # S  55
  [   -0.0055,     0.0032,    -0.0055],  # Mo 56
  [   -0.0019,    -0.0002,    -0.0049],  # S  57
  [    0.0023,    -0.0017,     0.0039],  # S  58
  [    0.0008,     0.0046,    -0.0023],  # Mo 59
  [   -0.0003,    -0.0012,     0.0032],  # S  60
  [   -0.0022,     0.0033,    -0.0041],  # S  61
  [   -0.0011,     0.0022,    -0.0041],  # Mo 62
  [   -0.0014,     0.0043,    -0.0009],  # S  63
  [    0.0033,     0.0054,     0.0045],  # S  64
  [   -0.0004,    -0.0028,    -0.0035],  # Mo 65
  [   -0.0034,     0.0019,     0.0071],  # S  66
  [   -0.0072,     0.0041,    -0.0042],  # S  67
  [   -0.0021,     0.0012,    -0.0010],  # Ru 68
  [   -0.0009,     0.0012,    -0.0009],  # S  69
  [   -0.0036,    -0.0009,     0.0014],  # S  70
  [   -0.0036,    -0.0012,    -0.0024],  # Mo 71
  [    0.0022,     0.0030,     0.0050],  # S  72
  [   -0.0060,     0.0005,    -0.0044]]  # S  73
---

timing:  # [seconds]
  Total:  18964.436  # ━━━━━━━━━━━━━━━━━━━━━━━━━━━━━━━━━━━━━━━━━━━━━━━━━━━━━━
  Init:      16.406  # 
  SCF:    18274.715  # ━━━━━━━━━━━━━━━━━━━━━━━━━━━━━━━━━━━━━━━━━━━━━━━━━━━━
  Forces:   369.213  # ━
  Move:     301.599  # ━

Max RSS: 3232.543  # MiB
