  ___ ___ ___ _ _ _
 |   |   |_  | | | |
 | | | | | . | | | |
 |__ |  _|___|_____| - 25.7.0
 |___|_|

User:   root@autodl-container-cb134f97cf-3ebc7372
Date:   Fri May 15 21:56:57 2026
Arch:   x86_64
Pid:    926295
CWD:    /root/autodl-tmp/2d-defect-dast
Python: 3.10.20
gpaw:   /root/miniconda3/envs/gpaw-env/lib/python3.10/site-packages/gpaw
_gpaw:  /root/miniconda3/envs/gpaw-env/lib/python3.10/site-packages/
        _gpaw.cpython-310-x86_64-linux-gnu.so
ase:    /root/miniconda3/envs/gpaw-env/lib/python3.10/site-packages/ase (version 3.28.0)
numpy:  /root/miniconda3/envs/gpaw-env/lib/python3.10/site-packages/numpy (version 2.2.6)
scipy:  /root/miniconda3/envs/gpaw-env/lib/python3.10/site-packages/scipy (version 1.15.2)
libxc:  7.0.0
units:  Angstrom and eV
cores: 1
OpenMP: False
OMP_NUM_THREADS: 1

input parameters:
  mode=PW(ecut=500.0),
  kpts=MonkhorstPack(size=array([5, 5, 1])),
  occupations=Occupations(name='fermi-dirac', width=0.05, fixmagmom=False),
  parallel={'gpu': True},
  spinpol=True,
  xc=XC(name='PBE')

environment variables:
  GPAW_CPUPY=False,
  GPAW_MPI4PY=False,
  GPAW_NEW=True,
  GPAW_NO_C_EXTENSION=False,
  GPAW_TRACE=False,
  GPAW_USE_GPUS=True

Diagonalizing LCAO Hamiltonian
Converting LCAO to grid
                                                             
                                                             
                                                             
                                                             
            C   C C   C C   C C   C C   C                    
              C  C  C  C  C  C  C   C C   C                  
                   C     C     C     C     C                 
                C     C     C     C     C                    
                 C   C C   C  C  C  N  C  C  C               
                   C   C C   C C   C C   C C   C             
                                                             
                                                             
                                                             
                                                             

Atomic positions and initial magnetic moments

Positions:
   0 C      0.000000    0.000000   15.000000    ( 0.0000,  0.0000,  0.0000)
   1 C      1.230000    0.710141   15.000000    ( 0.0000,  0.0000,  0.0000)
   2 C     -1.230000    2.130422   15.000000    ( 0.0000,  0.0000,  0.0000)
   3 C      0.000000    2.840563   15.000000    ( 0.0000,  0.0000,  0.0000)
   4 C     -2.460000    4.260845   15.000000    ( 0.0000,  0.0000,  0.0000)
   5 C     -1.230000    4.970986   15.000000    ( 0.0000,  0.0000,  0.0000)
   6 C     -3.690000    6.391267   15.000000    ( 0.0000,  0.0000,  0.0000)
   7 C     -2.460000    7.101408   15.000000    ( 0.0000,  0.0000,  0.0000)
   8 C     -4.920000    8.521690   15.000000    ( 0.0000,  0.0000,  0.0000)
   9 C     -3.690000    9.231831   15.000000    ( 0.0000,  0.0000,  0.0000)
  10 C      2.460000    0.000000   15.000000    ( 0.0000,  0.0000,  0.0000)
  11 C      3.690000    0.710141   15.000000    ( 0.0000,  0.0000,  0.0000)
  12 C      1.230000    2.130422   15.000000    ( 0.0000,  0.0000,  0.0000)
  13 C      2.460000    2.840563   15.000000    ( 0.0000,  0.0000,  0.0000)
  14 C      0.000000    4.260845   15.000000    ( 0.0000,  0.0000,  0.0000)
  15 C      1.230000    4.970986   15.000000    ( 0.0000,  0.0000,  0.0000)
  16 C     -1.230000    6.391267   15.000000    ( 0.0000,  0.0000,  0.0000)
  17 C      0.000000    7.101408   15.000000    ( 0.0000,  0.0000,  0.0000)
  18 C     -2.460000    8.521690   15.000000    ( 0.0000,  0.0000,  0.0000)
  19 C     -1.230000    9.231831   15.000000    ( 0.0000,  0.0000,  0.0000)
  20 C      4.920000    0.000000   15.000000    ( 0.0000,  0.0000,  0.0000)
  21 C      6.150000    0.710141   15.000000    ( 0.0000,  0.0000,  0.0000)
  22 C      3.690000    2.130422   15.000000    ( 0.0000,  0.0000,  0.0000)
  23 C      4.920000    2.840563   15.000000    ( 0.0000,  0.0000,  0.0000)
  24 C      2.460000    4.260845   15.000000    ( 0.0000,  0.0000,  0.0000)
  25 C      3.690000    4.970986   15.000000    ( 0.0000,  0.0000,  0.0000)
  26 C      1.230000    6.391267   15.000000    ( 0.0000,  0.0000,  0.0000)
  27 C      2.460000    7.101408   15.000000    ( 0.0000,  0.0000,  0.0000)
  28 C      0.000000    8.521690   15.000000    ( 0.0000,  0.0000,  0.0000)
  29 C      1.230000    9.231831   15.000000    ( 0.0000,  0.0000,  0.0000)
  30 C      7.380000    0.000000   15.000000    ( 0.0000,  0.0000,  0.0000)
  31 C      8.610000    0.710141   15.000000    ( 0.0000,  0.0000,  0.0000)
  32 N      6.150000    2.130422   15.000000    ( 0.0000,  0.0000,  0.0000)
  33 C      7.380000    2.840563   15.000000    ( 0.0000,  0.0000,  0.0000)
  34 C      4.920000    4.260845   15.000000    ( 0.0000,  0.0000,  0.0000)
  35 C      6.150000    4.970986   15.000000    ( 0.0000,  0.0000,  0.0000)
  36 C      3.690000    6.391267   15.000000    ( 0.0000,  0.0000,  0.0000)
  37 C      4.920000    7.101408   15.000000    ( 0.0000,  0.0000,  0.0000)
  38 C      2.460000    8.521690   15.000000    ( 0.0000,  0.0000,  0.0000)
  39 C      3.690000    9.231831   15.000000    ( 0.0000,  0.0000,  0.0000)
  40 C      9.840000    0.000000   15.000000    ( 0.0000,  0.0000,  0.0000)
  41 C     11.070000    0.710141   15.000000    ( 0.0000,  0.0000,  0.0000)
  42 C      8.610000    2.130422   15.000000    ( 0.0000,  0.0000,  0.0000)
  43 C      9.840000    2.840563   15.000000    ( 0.0000,  0.0000,  0.0000)
  44 C      7.380000    4.260845   15.000000    ( 0.0000,  0.0000,  0.0000)
  45 C      8.610000    4.970986   15.000000    ( 0.0000,  0.0000,  0.0000)
  46 C      6.150000    6.391267   15.000000    ( 0.0000,  0.0000,  0.0000)
  47 C      7.380000    7.101408   15.000000    ( 0.0000,  0.0000,  0.0000)
  48 C      4.920000    8.521690   15.000000    ( 0.0000,  0.0000,  0.0000)
  49 C      6.150000    9.231831   15.000000    ( 0.0000,  0.0000,  0.0000)

Unit cell:
           periodic     x           y           z      points  spacing
  1. axis:    yes   12.300000    0.000000    0.000000    64     0.1664
  2. axis:    yes   -6.150000   10.652112    0.000000    64     0.1664
  3. axis:    no     0.000000   -0.000000   30.000000   160     0.1875

  Lengths:  12.300000  12.300000  30.000000
  Angles:   90.000000  90.000000 120.000000

Effective grid spacing dv^(1/3) = 0.1817

symmetry:
  number of symmetries: 4
  rotations: [
    [[ 1,  0,  0], [ 0,  1,  0], [ 0,  0,  1]],
    [[ 1,  0,  0], [ 0,  1,  0], [ 0,  0, -1]],
    [[-1,  0,  0], [ 1,  1,  0], [ 0,  0,  1]],
    [[-1,  0,  0], [ 1,  1,  0], [ 0,  0, -1]]]

bz sampling:
  number of bz points: 25
  number of ibz points: 9
  monkhorst-pack size: [5, 5, 1]
  monkhorst-pack shift: [0, 0, 0]
  points and weights: [
    [[  0.00000000,   0.00000000,   0.00000000], 0.04000000],  # 0
    [[  0.00000000,   0.20000000,   0.00000000], 0.08000000],  # 1
    [[  0.00000000,   0.40000000,   0.00000000], 0.08000000],  # 2
    [[  0.20000000,   0.00000000,   0.00000000], 0.16000000],  # 3
    [[  0.20000000,   0.20000000,   0.00000000], 0.16000000],  # 4
    [[  0.20000000,   0.40000000,   0.00000000], 0.08000000],  # 5
    [[  0.40000000,  -0.20000000,   0.00000000], 0.08000000],  # 6
    [[  0.40000000,   0.00000000,   0.00000000], 0.16000000],  # 7
    [[  0.40000000,   0.40000000,   0.00000000], 0.16000000]]  # 8

plane wave coefficients: 99877
cutoff: 500.0 eV

spin-components: 2  # (collinear spins)
bands: 125
spin-degeneracy: 1
dtype: complex128

memory:
    storage: GPU
    wave functions: 3_595_572_000  # bytes  (3_595_572_000 per core)

parallelization:
    kpt:    1
    domain: 1
    band:   1

density:
  valence electrons: 201.0
  components: 2
  grid points: [ 64  64 160]
  charge: 0.0  # |e|

potential:
  grid points: [ 64  64 160]

species:
  C:
    name: Carbon
    id: 4aa54d4b901d75f77cc0ea3eec22967b
    Z: 6.0
    valence: 4
    core: 2
    charge: 0.0
    file: /root/miniconda3/envs/gpaw-env/lib/python3.10/site-packages/gpaw_data/setups/C.PBE.gz
    compensation charges: {type: gauss,
                           rc: 0.20,
                           lmax: 2}
    cutoffs: {filter: 1.14,
              core: 1.14}
    projectors:
      #              energy  rcut
      - 2s(2.00)   -13.751   0.635
      - 2p(2.00)    -5.284   0.635
      -  s          13.461   0.635
      -  p          21.927   0.635
      -  d           0.000   0.635
  
    # Using partial waves for C as LCAO basis

  N:
    name: Nitrogen
    id: f7500608b86eaa90eef8b1d9a670dc53
    Z: 7.0
    valence: 5
    core: 2
    charge: 0.0
    file: /root/miniconda3/envs/gpaw-env/lib/python3.10/site-packages/gpaw_data/setups/N.PBE.gz
    compensation charges: {type: gauss,
                           rc: 0.18,
                           lmax: 2}
    cutoffs: {filter: 1.11,
              core: 0.96}
    projectors:
      #              energy  rcut
      - 2s(2.00)   -18.583   0.603
      - 2p(3.00)    -7.089   0.529
      -  s           8.629   0.603
      -  p          20.123   0.529
      -  d           0.000   0.577
  
    # Using partial waves for N as LCAO basis

Reference energy: -51835.499163  # eV

eigensolver:
  {'converge_bands': 'occupied', 'name': 'Davidson', 'niter': 2}
Density mixing:
  Method: difference
  Backend: pulay
  Linear mixing parameter: 0.05
  old densities: 5
  Damping of long wavelength oscillations: 50
occupation numbers:
  Fermi-Dirac:
    width: 0.0500  # eV
  

<gpaw.new.pw.paw_poisson.SlowPAWPoissonSolver object at 0x7fc9f04c1c60>
xc functional:
  name: PBE with 2 nearest neighbor stencil

convergence criteria:
- Maximum [total energy] change in last 3 cyles: 0.0005 eV / valence electron
- Maximum integral of absolute [dens]ity change: 0.0001 electrons / valence electron
- Maximum integral of absolute [eigenst]ate change: 4e-08 eV^2 / valence electron
maximum number of iterations: 333

     iter     time        total  log10-change:  magmom
                         energy   eigst   dens
iter:   1 21:57:11  -477.319302   +1.03           +0.0000
iter:   2 21:57:21  -480.211998   -0.22  -0.82    +0.0000
iter:   3 21:57:30  -488.526241   -0.98  -0.82    +0.0000
iter:   4 21:57:39  -459.271246   -0.62  -0.76    +0.0000
iter:   5 21:57:48  -459.257634   -1.87  -1.38    +0.0000
iter:   6 21:57:57  -459.308065c  -2.61  -1.39    +0.0000
iter:   7 21:58:07  -459.620845   -1.68  -1.39    +0.0000
iter:   8 21:58:16  -459.334676   -2.63  -1.50    -0.0000
iter:   9 21:58:25  -458.470169   -1.92  -1.56    +0.0000
iter:  10 21:58:34  -458.432623   -3.11  -2.26    +0.0000
iter:  11 21:58:43  -458.433116c  -4.17  -2.46    +0.0000
iter:  12 21:58:53  -458.429508c  -4.21  -2.45    +0.0000
iter:  13 21:59:02  -458.424353c  -3.88  -2.52    +0.0000
iter:  14 21:59:11  -458.416079c  -4.32  -2.58    +0.0000
iter:  15 21:59:20  -458.414312c  -4.85  -2.79    +0.0000
iter:  16 21:59:29  -458.412686c  -4.60  -2.91    +0.0000
iter:  17 21:59:39  -458.412556c  -5.29  -2.95    +0.0000
iter:  18 21:59:48  -458.412172c  -5.06  -2.99    +0.0000
iter:  19 21:59:57  -458.412113c  -5.59  -3.29    -0.0000
iter:  20 22:00:06  -458.412024c  -6.30  -3.42    -0.0000
iter:  21 22:00:16  -458.412016c  -6.29  -3.56    -0.0000
iter:  22 22:00:25  -458.412003c  -6.44  -3.67    -0.0000
iter:  23 22:00:34  -458.412006c  -7.09  -3.79    -0.0000
iter:  24 22:00:43  -458.412005c  -6.59  -3.82    -0.0000
iter:  25 22:00:52  -458.412000c  -7.02  -3.93    -0.0000
iter:  26 22:01:01  -458.412012c  -7.39  -4.03c   -0.0000
iter:  27 22:01:11  -458.412026c  -7.40c -4.08c   +0.0000
Converged in 27 steps
Energy contributions relative to reference atoms: (reference = -51835.499163)

kinetic:         433.578135
coulomb:        -444.267400
zero:              0.477168
external:          0.000000
xc:             -448.188235
entropy:          -0.023388
spinorbit:         0.000000
----------------------------
Free energy:    -458.423720
Extrapolated:   -458.412026

dipole moment: [-37.742535, -118.798683, 0.000336]  # |e|*Ang

total magnetic moment: [0.000000, 0.000000, 0.000000]

local magnetic moments: [
  [ 0.000000,  0.000000, -0.000000],  # C  0
  [ 0.000000,  0.000000,  0.000000],  # C  1
  [ 0.000000,  0.000000,  0.000000],  # C  2
  [ 0.000000,  0.000000,  0.000000],  # C  3
  [ 0.000000,  0.000000, -0.000000],  # C  4
  [ 0.000000,  0.000000,  0.000000],  # C  5
  [ 0.000000,  0.000000,  0.000000],  # C  6
  [ 0.000000,  0.000000,  0.000000],  # C  7
  [ 0.000000,  0.000000,  0.000000],  # C  8
  [ 0.000000,  0.000000,  0.000000],  # C  9
  [ 0.000000,  0.000000, -0.000000],  # C  10
  [ 0.000000,  0.000000, -0.000000],  # C  11
  [ 0.000000,  0.000000,  0.000000],  # C  12
  [ 0.000000,  0.000000, -0.000000],  # C  13
  [ 0.000000,  0.000000, -0.000000],  # C  14
  [ 0.000000,  0.000000,  0.000000],  # C  15
  [ 0.000000,  0.000000, -0.000000],  # C  16
  [ 0.000000,  0.000000, -0.000000],  # C  17
  [ 0.000000,  0.000000,  0.000000],  # C  18
  [ 0.000000,  0.000000, -0.000000],  # C  19
  [ 0.000000,  0.000000, -0.000000],  # C  20
  [ 0.000000,  0.000000,  0.000000],  # C  21
  [ 0.000000,  0.000000, -0.000000],  # C  22
  [ 0.000000,  0.000000,  0.000000],  # C  23
  [ 0.000000,  0.000000, -0.000000],  # C  24
  [ 0.000000,  0.000000, -0.000000],  # C  25
  [ 0.000000,  0.000000, -0.000000],  # C  26
  [ 0.000000,  0.000000,  0.000000],  # C  27
  [ 0.000000,  0.000000, -0.000000],  # C  28
  [ 0.000000,  0.000000, -0.000000],  # C  29
  [ 0.000000,  0.000000, -0.000000],  # C  30
  [ 0.000000,  0.000000, -0.000000],  # C  31
  [ 0.000000,  0.000000,  0.000000],  # N  32
  [ 0.000000,  0.000000,  0.000000],  # C  33
  [ 0.000000,  0.000000, -0.000000],  # C  34
  [ 0.000000,  0.000000, -0.000000],  # C  35
  [ 0.000000,  0.000000,  0.000000],  # C  36
  [ 0.000000,  0.000000, -0.000000],  # C  37
  [ 0.000000,  0.000000,  0.000000],  # C  38
  [ 0.000000,  0.000000,  0.000000],  # C  39
  [ 0.000000,  0.000000, -0.000000],  # C  40
  [ 0.000000,  0.000000,  0.000000],  # C  41
  [ 0.000000,  0.000000, -0.000000],  # C  42
  [ 0.000000,  0.000000, -0.000000],  # C  43
  [ 0.000000,  0.000000, -0.000000],  # C  44
  [ 0.000000,  0.000000, -0.000000],  # C  45
  [ 0.000000,  0.000000, -0.000000],  # C  46
  [ 0.000000,  0.000000, -0.000000],  # C  47
  [ 0.000000,  0.000000,  0.000000],  # C  48
  [ 0.000000,  0.000000,  0.000000]]  # C  49


Fermi level: -2.438

kpt = [0.000, 0.000, 0.000], weight = 0.040:
  Band      eig [eV]   occ [0-1]      eig [eV]   occ [0-1]
     0       -24.748       1.000       -24.748       1.000
     1       -22.414       1.000       -22.414       1.000
     2       -21.815       1.000       -21.815       1.000
     3       -21.815       1.000       -21.815       1.000
     4       -21.626       1.000       -21.626       1.000
     5       -21.626       1.000       -21.626       1.000
     6       -21.577       1.000       -21.577       1.000
     7       -20.725       1.000       -20.725       1.000
     8       -20.013       1.000       -20.013       1.000
     9       -20.013       1.000       -20.013       1.000
    10       -19.843       1.000       -19.843       1.000
    11       -19.843       1.000       -19.843       1.000
    12       -19.829       1.000       -19.829       1.000
    13       -19.227       1.000       -19.227       1.000
    14       -19.038       1.000       -19.038       1.000
    15       -19.038       1.000       -19.038       1.000
    16       -18.947       1.000       -18.947       1.000
    17       -18.946       1.000       -18.946       1.000
    18       -18.915       1.000       -18.915       1.000
    19       -17.412       1.000       -17.412       1.000
    20       -16.986       1.000       -16.986       1.000
    21       -16.986       1.000       -16.986       1.000
    22       -16.811       1.000       -16.811       1.000
    23       -16.691       1.000       -16.691       1.000
    24       -16.691       1.000       -16.691       1.000
    25       -16.069       1.000       -16.069       1.000
    26       -16.069       1.000       -16.069       1.000
    27       -16.014       1.000       -16.014       1.000
    28       -15.785       1.000       -15.785       1.000
    29       -15.785       1.000       -15.785       1.000
    30       -15.776       1.000       -15.776       1.000
    31       -14.673       1.000       -14.673       1.000
    32       -14.636       1.000       -14.636       1.000
    33       -14.636       1.000       -14.636       1.000
    34       -14.442       1.000       -14.442       1.000
    35       -14.442       1.000       -14.442       1.000
    36       -14.430       1.000       -14.430       1.000
    37       -12.728       1.000       -12.728       1.000
    38       -12.728       1.000       -12.728       1.000
    39       -12.419       1.000       -12.419       1.000
    40       -12.131       1.000       -12.131       1.000
    41       -12.061       1.000       -12.061       1.000
    42       -12.061       1.000       -12.061       1.000
    43       -12.028       1.000       -12.028       1.000
    44       -12.028       1.000       -12.028       1.000
    45       -11.894       1.000       -11.894       1.000
    46       -11.889       1.000       -11.889       1.000
    47       -11.889       1.000       -11.889       1.000
    48       -11.883       1.000       -11.883       1.000
    49       -11.083       1.000       -11.083       1.000
    50       -10.871       1.000       -10.871       1.000
    51       -10.871       1.000       -10.871       1.000
    52       -10.594       1.000       -10.594       1.000
    53       -10.594       1.000       -10.594       1.000
    54       -10.591       1.000       -10.591       1.000
    55       -10.586       1.000       -10.586       1.000
    56       -10.203       1.000       -10.203       1.000
    57        -9.704       1.000        -9.704       1.000
    58        -9.704       1.000        -9.704       1.000
    59        -9.669       1.000        -9.669       1.000
    60        -9.669       1.000        -9.669       1.000
    61        -9.526       1.000        -9.526       1.000
    62        -9.526       1.000        -9.526       1.000
    63        -9.483       1.000        -9.483       1.000
    64        -9.401       1.000        -9.401       1.000
    65        -9.389       1.000        -9.389       1.000
    66        -9.306       1.000        -9.306       1.000
    67        -9.306       1.000        -9.306       1.000
    68        -9.225       1.000        -9.225       1.000
    69        -9.225       1.000        -9.225       1.000
    70        -9.202       1.000        -9.202       1.000
    71        -9.176       1.000        -9.176       1.000
    72        -9.176       1.000        -9.176       1.000
    73        -9.153       1.000        -9.153       1.000
    74        -8.070       1.000        -8.070       1.000
    75        -7.828       1.000        -7.828       1.000
    76        -7.828       1.000        -7.828       1.000
    77        -7.642       1.000        -7.642       1.000
    78        -7.593       1.000        -7.593       1.000
    79        -7.593       1.000        -7.593       1.000
    80        -7.549       1.000        -7.549       1.000
    81        -7.537       1.000        -7.537       1.000
    82        -7.537       1.000        -7.537       1.000
    83        -7.442       1.000        -7.442       1.000
    84        -7.442       1.000        -7.442       1.000
    85        -7.435       1.000        -7.435       1.000
    86        -6.793       1.000        -6.793       1.000
    87        -6.626       1.000        -6.626       1.000
    88        -6.626       1.000        -6.626       1.000
    89        -6.514       1.000        -6.514       1.000
    90        -6.514       1.000        -6.514       1.000
    91        -6.503       1.000        -6.503       1.000
    92        -6.164       1.000        -6.164       1.000
    93        -6.164       1.000        -6.164       1.000
    94        -4.943       1.000        -4.943       1.000
    95        -4.647       1.000        -4.647       1.000
    96        -4.647       1.000        -4.647       1.000
    97        -4.585       1.000        -4.585       1.000
    98        -4.488       1.000        -4.488       1.000
    99        -4.488       1.000        -4.488       1.000
   100        -2.308       0.069        -2.308       0.069
   101        -1.838       0.000        -1.838       0.000
   102        -1.838       0.000        -1.838       0.000
   103        -1.763       0.000        -1.763       0.000
   104        -1.690       0.000        -1.690       0.000
   105        -1.690       0.000        -1.690       0.000
   106        -0.327       0.000        -0.327       0.000
   107         0.052       0.000         0.052       0.000
   108         0.052       0.000         0.052       0.000
   109         0.153       0.000         0.153       0.000
   110         0.153       0.000         0.153       0.000
   111         0.167       0.000         0.167       0.000
   112         0.171       0.000         0.171       0.000
   113         0.891       0.000         0.891       0.000
   114         1.037       0.000         1.037       0.000
   115         1.335       0.000         1.335       0.000
   116         1.447       0.000         1.447       0.000
   117         1.460       0.000         1.462       0.000
   118         1.513       0.000         1.513       0.000
   119         1.538       0.000         1.538       0.000
   120         1.569       0.000         1.569       0.000
   121         1.835       0.000         1.835       0.000
   122         1.835       0.000         1.835       0.000
   123         1.899       0.000         1.899       0.000
   124         1.901       0.000         1.901       0.000

kpt = [0.000, 0.200, 0.000], weight = 0.080:
  Band      eig [eV]   occ [0-1]      eig [eV]   occ [0-1]
     0       -24.748       1.000       -24.748       1.000
     1       -22.400       1.000       -22.400       1.000
     2       -21.943       1.000       -21.943       1.000
     3       -21.894       1.000       -21.894       1.000
     4       -21.677       1.000       -21.677       1.000
     5       -21.473       1.000       -21.473       1.000
     6       -21.265       1.000       -21.265       1.000
     7       -20.850       1.000       -20.850       1.000
     8       -20.385       1.000       -20.385       1.000
     9       -20.121       1.000       -20.121       1.000
    10       -19.916       1.000       -19.916       1.000
    11       -19.692       1.000       -19.692       1.000
    12       -19.532       1.000       -19.532       1.000
    13       -19.323       1.000       -19.323       1.000
    14       -19.316       1.000       -19.316       1.000
    15       -19.272       1.000       -19.272       1.000
    16       -18.685       1.000       -18.685       1.000
    17       -18.606       1.000       -18.606       1.000
    18       -18.291       1.000       -18.291       1.000
    19       -17.730       1.000       -17.730       1.000
    20       -17.336       1.000       -17.336       1.000
    21       -17.156       1.000       -17.156       1.000
    22       -17.117       1.000       -17.117       1.000
    23       -16.812       1.000       -16.812       1.000
    24       -16.763       1.000       -16.763       1.000
    25       -16.050       1.000       -16.050       1.000
    26       -15.990       1.000       -15.990       1.000
    27       -15.691       1.000       -15.691       1.000
    28       -15.580       1.000       -15.580       1.000
    29       -15.546       1.000       -15.546       1.000
    30       -15.311       1.000       -15.311       1.000
    31       -15.267       1.000       -15.267       1.000
    32       -14.985       1.000       -14.985       1.000
    33       -14.980       1.000       -14.980       1.000
    34       -14.055       1.000       -14.055       1.000
    35       -14.038       1.000       -14.038       1.000
    36       -13.557       1.000       -13.557       1.000
    37       -13.251       1.000       -13.251       1.000
    38       -12.959       1.000       -12.959       1.000
    39       -12.776       1.000       -12.776       1.000
    40       -12.706       1.000       -12.706       1.000
    41       -12.420       1.000       -12.420       1.000
    42       -12.366       1.000       -12.366       1.000
    43       -12.143       1.000       -12.143       1.000
    44       -11.966       1.000       -11.966       1.000
    45       -11.721       1.000       -11.721       1.000
    46       -11.476       1.000       -11.476       1.000
    47       -11.320       1.000       -11.320       1.000
    48       -11.312       1.000       -11.312       1.000
    49       -11.196       1.000       -11.196       1.000
    50       -11.140       1.000       -11.140       1.000
    51       -11.065       1.000       -11.065       1.000
    52       -10.606       1.000       -10.606       1.000
    53       -10.421       1.000       -10.421       1.000
    54       -10.315       1.000       -10.315       1.000
    55       -10.267       1.000       -10.267       1.000
    56       -10.120       1.000       -10.120       1.000
    57       -10.012       1.000       -10.012       1.000
    58        -9.843       1.000        -9.843       1.000
    59        -9.823       1.000        -9.823       1.000
    60        -9.799       1.000        -9.799       1.000
    61        -9.787       1.000        -9.787       1.000
    62        -9.599       1.000        -9.599       1.000
    63        -9.574       1.000        -9.574       1.000
    64        -9.495       1.000        -9.495       1.000
    65        -9.494       1.000        -9.494       1.000
    66        -9.322       1.000        -9.322       1.000
    67        -9.291       1.000        -9.291       1.000
    68        -9.283       1.000        -9.283       1.000
    69        -9.097       1.000        -9.097       1.000
    70        -9.093       1.000        -9.093       1.000
    71        -8.848       1.000        -8.848       1.000
    72        -8.840       1.000        -8.840       1.000
    73        -8.366       1.000        -8.366       1.000
    74        -8.328       1.000        -8.328       1.000
    75        -8.127       1.000        -8.127       1.000
    76        -8.041       1.000        -8.041       1.000
    77        -8.035       1.000        -8.035       1.000
    78        -7.919       1.000        -7.919       1.000
    79        -7.649       1.000        -7.649       1.000
    80        -7.564       1.000        -7.564       1.000
    81        -7.525       1.000        -7.525       1.000
    82        -7.462       1.000        -7.462       1.000
    83        -7.296       1.000        -7.296       1.000
    84        -7.230       1.000        -7.230       1.000
    85        -7.036       1.000        -7.036       1.000
    86        -6.894       1.000        -6.894       1.000
    87        -6.871       1.000        -6.871       1.000
    88        -6.808       1.000        -6.808       1.000
    89        -6.316       1.000        -6.316       1.000
    90        -6.260       1.000        -6.260       1.000
    91        -6.242       1.000        -6.242       1.000
    92        -6.200       1.000        -6.200       1.000
    93        -5.959       1.000        -5.959       1.000
    94        -5.183       1.000        -5.183       1.000
    95        -4.987       1.000        -4.987       1.000
    96        -4.853       1.000        -4.853       1.000
    97        -4.798       1.000        -4.798       1.000
    98        -4.363       1.000        -4.363       1.000
    99        -4.286       1.000        -4.286       1.000
   100        -2.299       0.058        -2.299       0.058
   101        -1.961       0.000        -1.961       0.000
   102        -1.748       0.000        -1.748       0.000
   103        -1.550       0.000        -1.550       0.000
   104        -1.460       0.000        -1.460       0.000
   105        -1.405       0.000        -1.405       0.000
   106        -0.826       0.000        -0.826       0.000
   107        -0.473       0.000        -0.473       0.000
   108        -0.371       0.000        -0.371       0.000
   109         0.222       0.000         0.222       0.000
   110         0.418       0.000         0.418       0.000
   111         0.590       0.000         0.590       0.000
   112         0.851       0.000         0.851       0.000
   113         0.945       0.000         0.945       0.000
   114         0.989       0.000         0.989       0.000
   115         1.000       0.000         1.000       0.000
   116         1.091       0.000         1.091       0.000
   117         1.103       0.000         1.103       0.000
   118         1.257       0.000         1.257       0.000
   119         1.273       0.000         1.273       0.000
   120         1.435       0.000         1.435       0.000
   121         1.616       0.000         1.616       0.000
   122         1.672       0.000         1.674       0.000
   123         1.752       0.000         1.752       0.000
   124         1.759       0.000         1.759       0.000

kpt = [0.000, 0.400, 0.000], weight = 0.080:
  Band      eig [eV]   occ [0-1]      eig [eV]   occ [0-1]
     0       -24.748       1.000       -24.748       1.000
     1       -22.365       1.000       -22.365       1.000
     2       -22.103       1.000       -22.103       1.000
     3       -21.960       1.000       -21.960       1.000
     4       -21.576       1.000       -21.576       1.000
     5       -21.188       1.000       -21.188       1.000
     6       -21.076       1.000       -21.076       1.000
     7       -20.818       1.000       -20.818       1.000
     8       -20.818       1.000       -20.818       1.000
     9       -20.335       1.000       -20.335       1.000
    10       -20.054       1.000       -20.054       1.000
    11       -19.846       1.000       -19.846       1.000
    12       -19.535       1.000       -19.535       1.000
    13       -19.521       1.000       -19.521       1.000
    14       -19.016       1.000       -19.016       1.000
    15       -18.661       1.000       -18.661       1.000
    16       -18.388       1.000       -18.388       1.000
    17       -18.170       1.000       -18.170       1.000
    18       -18.152       1.000       -18.152       1.000
    19       -17.975       1.000       -17.975       1.000
    20       -17.678       1.000       -17.678       1.000
    21       -17.651       1.000       -17.651       1.000
    22       -17.581       1.000       -17.581       1.000
    23       -16.835       1.000       -16.835       1.000
    24       -16.782       1.000       -16.782       1.000
    25       -16.304       1.000       -16.304       1.000
    26       -15.849       1.000       -15.849       1.000
    27       -15.807       1.000       -15.807       1.000
    28       -15.426       1.000       -15.426       1.000
    29       -15.377       1.000       -15.377       1.000
    30       -15.171       1.000       -15.171       1.000
    31       -15.100       1.000       -15.100       1.000
    32       -14.709       1.000       -14.709       1.000
    33       -14.456       1.000       -14.456       1.000
    34       -13.959       1.000       -13.959       1.000
    35       -13.654       1.000       -13.654       1.000
    36       -13.559       1.000       -13.559       1.000
    37       -13.524       1.000       -13.524       1.000
    38       -13.301       1.000       -13.301       1.000
    39       -13.284       1.000       -13.284       1.000
    40       -12.877       1.000       -12.877       1.000
    41       -12.866       1.000       -12.866       1.000
    42       -12.505       1.000       -12.505       1.000
    43       -12.193       1.000       -12.193       1.000
    44       -11.856       1.000       -11.856       1.000
    45       -11.566       1.000       -11.566       1.000
    46       -11.555       1.000       -11.555       1.000
    47       -11.433       1.000       -11.433       1.000
    48       -11.086       1.000       -11.086       1.000
    49       -11.032       1.000       -11.032       1.000
    50       -10.949       1.000       -10.949       1.000
    51       -10.737       1.000       -10.737       1.000
    52       -10.671       1.000       -10.671       1.000
    53       -10.393       1.000       -10.393       1.000
    54       -10.389       1.000       -10.389       1.000
    55       -10.362       1.000       -10.362       1.000
    56       -10.122       1.000       -10.122       1.000
    57       -10.069       1.000       -10.069       1.000
    58        -9.985       1.000        -9.985       1.000
    59        -9.873       1.000        -9.873       1.000
    60        -9.871       1.000        -9.871       1.000
    61        -9.871       1.000        -9.871       1.000
    62        -9.647       1.000        -9.647       1.000
    63        -9.592       1.000        -9.592       1.000
    64        -9.544       1.000        -9.544       1.000
    65        -9.243       1.000        -9.243       1.000
    66        -9.212       1.000        -9.212       1.000
    67        -9.204       1.000        -9.204       1.000
    68        -8.979       1.000        -8.979       1.000
    69        -8.837       1.000        -8.837       1.000
    70        -8.742       1.000        -8.742       1.000
    71        -8.656       1.000        -8.656       1.000
    72        -8.629       1.000        -8.629       1.000
    73        -8.558       1.000        -8.558       1.000
    74        -8.548       1.000        -8.548       1.000
    75        -8.431       1.000        -8.431       1.000
    76        -8.424       1.000        -8.424       1.000
    77        -8.390       1.000        -8.390       1.000
    78        -7.978       1.000        -7.978       1.000
    79        -7.774       1.000        -7.774       1.000
    80        -7.574       1.000        -7.574       1.000
    81        -7.537       1.000        -7.537       1.000
    82        -7.370       1.000        -7.370       1.000
    83        -7.365       1.000        -7.365       1.000
    84        -7.128       1.000        -7.128       1.000
    85        -7.116       1.000        -7.116       1.000
    86        -6.865       1.000        -6.865       1.000
    87        -6.746       1.000        -6.746       1.000
    88        -6.448       1.000        -6.448       1.000
    89        -6.428       1.000        -6.428       1.000
    90        -6.142       1.000        -6.142       1.000
    91        -5.889       1.000        -5.889       1.000
    92        -5.798       1.000        -5.798       1.000
    93        -5.678       1.000        -5.678       1.000
    94        -5.471       1.000        -5.471       1.000
    95        -5.439       1.000        -5.439       1.000
    96        -5.321       1.000        -5.321       1.000
    97        -5.318       1.000        -5.318       1.000
    98        -4.222       1.000        -4.222       1.000
    99        -4.125       1.000        -4.125       1.000
   100        -2.338       0.119        -2.338       0.119
   101        -2.054       0.000        -2.054       0.000
   102        -1.587       0.000        -1.587       0.000
   103        -1.273       0.000        -1.273       0.000
   104        -1.218       0.000        -1.218       0.000
   105        -0.895       0.000        -0.895       0.000
   106        -0.799       0.000        -0.799       0.000
   107        -0.782       0.000        -0.782       0.000
   108        -0.729       0.000        -0.729       0.000
   109        -0.028       0.000        -0.028       0.000
   110         0.112       0.000         0.112       0.000
   111         0.370       0.000         0.370       0.000
   112         0.644       0.000         0.644       0.000
   113         0.879       0.000         0.879       0.000
   114         1.051       0.000         1.051       0.000
   115         1.103       0.000         1.103       0.000
   116         1.150       0.000         1.150       0.000
   117         1.171       0.000         1.171       0.000
   118         1.250       0.000         1.250       0.000
   119         1.363       0.000         1.363       0.000
   120         1.427       0.000         1.427       0.000
   121         1.485       0.000         1.485       0.000
   122         1.514       0.000         1.514       0.000
   123         1.597       0.000         1.599       0.000
   124         1.775       0.000         1.775       0.000
(only showing first 3 out of 9 k-points)

No gap
No difference between direct/indirect transitions
vacuum-level: 1.175  # V

Forces: [  # eV/Ang
  [    0.0000,     0.0141,     0.0000],  # C  0
  [   -0.0779,     0.1107,     0.0000],  # C  1
  [    0.0087,    -0.1348,     0.0000],  # C  2
  [    0.0000,     0.0340,     0.0000],  # C  3
  [   -0.0388,    -0.0232,     0.0000],  # C  4
  [    0.0495,     0.0294,     0.0000],  # C  5
  [   -0.1129,     0.0760,     0.0000],  # C  6
  [    0.0303,    -0.0178,     0.0000],  # C  7
  [    0.0121,    -0.0074,     0.0000],  # C  8
  [    0.0564,    -0.1231,     0.0000],  # C  9
  [    0.2316,     0.1339,     0.0000],  # C  10
  [   -0.3032,    -0.1746,     0.0000],  # C  11
  [   -0.0087,    -0.1348,     0.0000],  # C  12
  [    0.0910,     0.2371,     0.0000],  # C  13
  [    0.0000,     0.0184,     0.0000],  # C  14
  [   -0.0495,     0.0294,     0.0000],  # C  15
  [    0.0165,    -0.0089,     0.0000],  # C  16
  [   -0.0000,    -0.0574,     0.0000],  # C  17
  [   -0.1217,     0.0597,     0.0000],  # C  18
  [    0.2517,    -0.0408,     0.0000],  # C  19
  [    0.1417,     0.4633,     0.0000],  # C  20
  [    0.0000,     0.2552,     0.0000],  # C  21
  [    0.4722,    -0.1081,     0.0000],  # C  22
  [    0.2211,    -0.1282,     0.0000],  # C  23
  [    0.0388,    -0.0232,     0.0000],  # C  24
  [   -0.1606,    -0.1969,     0.0000],  # C  25
  [   -0.0165,    -0.0089,     0.0000],  # C  26
  [   -0.0303,    -0.0178,     0.0000],  # C  27
  [    0.0000,     0.0444,     0.0000],  # C  28
  [   -0.2517,    -0.0408,     0.0000],  # C  29
  [   -0.1417,     0.4633,     0.0000],  # C  30
  [    0.3032,    -0.1746,     0.0000],  # C  31
  [    0.0000,     0.0026,     0.0000],  # N  32
  [   -0.2211,    -0.1282,     0.0000],  # C  33
  [    0.3303,    -0.3549,     0.0000],  # C  34
  [    0.0000,     0.3512,     0.0000],  # C  35
  [    0.1129,     0.0760,     0.0000],  # C  36
  [   -0.1344,     0.0121,     0.0000],  # C  37
  [    0.1217,     0.0597,     0.0000],  # C  38
  [   -0.0564,    -0.1231,     0.0000],  # C  39
  [   -0.2316,     0.1339,     0.0000],  # C  40
  [    0.0779,     0.1107,     0.0000],  # C  41
  [   -0.4722,    -0.1081,     0.0000],  # C  42
  [   -0.0910,     0.2371,     0.0000],  # C  43
  [   -0.3303,    -0.3549,     0.0000],  # C  44
  [    0.1606,    -0.1969,     0.0000],  # C  45
  [   -0.0000,    -0.2668,     0.0000],  # C  46
  [    0.1344,     0.0121,     0.0000],  # C  47
  [   -0.0121,    -0.0074,     0.0000],  # C  48
  [    0.0000,    -0.0005,     0.0000]]  # C  49
                                                             
                                                             
                                                             
                                                             
            C   C C   C C   C C   C C   C                    
              C  C  C  C  C  C  C   C C   C                  
                   C     C     C     C     C                 
                C     C     C     C     C                    
                 C   C C   C  C  C  N  C  C  C               
                   C   C C   C C   C C   C C   C             
                                                             
                                                             
                                                             
                                                             

Atomic positions and initial magnetic moments

Positions:
   0 C      0.000000    0.000201   15.000000    ( 0.0000,  0.0000, -0.0000)
   1 C      1.228887    0.711722   15.000000    ( 0.0000,  0.0000,  0.0000)
   2 C     -1.229876    2.128496   15.000000    ( 0.0000,  0.0000,  0.0000)
   3 C      0.000000    2.841049   15.000000    ( 0.0000,  0.0000,  0.0000)
   4 C     -2.460555    4.260514   15.000000    ( 0.0000,  0.0000, -0.0000)
   5 C     -1.229294    4.971406   15.000000    ( 0.0000,  0.0000,  0.0000)
   6 C     -3.691613    6.392353   15.000000    ( 0.0000,  0.0000,  0.0000)
   7 C     -2.459568    7.101154   15.000000    ( 0.0000,  0.0000,  0.0000)
   8 C     -4.919827    8.521584   15.000000    ( 0.0000,  0.0000,  0.0000)
   9 C     -3.689194    9.230072   15.000000    ( 0.0000,  0.0000,  0.0000)
  10 C      2.463309    0.001913   15.000000    ( 0.0000,  0.0000, -0.0000)
  11 C      3.685669    0.707646   15.000000    ( 0.0000,  0.0000, -0.0000)
  12 C      1.229876    2.128496   15.000000    ( 0.0000,  0.0000,  0.0000)
  13 C      2.461300    2.843951   15.000000    ( 0.0000,  0.0000, -0.0000)
  14 C      0.000000    4.261107   15.000000    ( 0.0000,  0.0000, -0.0000)
  15 C      1.229294    4.971406   15.000000    ( 0.0000,  0.0000,  0.0000)
  16 C     -1.229764    6.391141   15.000000    ( 0.0000,  0.0000, -0.0000)
  17 C     -0.000000    7.100589   15.000000    ( 0.0000,  0.0000, -0.0000)
  18 C     -2.461739    8.522542   15.000000    ( 0.0000,  0.0000,  0.0000)
  19 C     -1.226405    9.231248   15.000000    ( 0.0000,  0.0000, -0.0000)
  20 C      4.922024    0.006619   15.000000    ( 0.0000,  0.0000, -0.0000)
  21 C      6.150000    0.713787   15.000000    ( 0.0000,  0.0000,  0.0000)
  22 C      3.696745    2.128878   15.000000    ( 0.0000,  0.0000, -0.0000)
  23 C      4.923158    2.838732   15.000000    ( 0.0000,  0.0000,  0.0000)
  24 C      2.460555    4.260514   15.000000    ( 0.0000,  0.0000, -0.0000)
  25 C      3.687706    4.968174   15.000000    ( 0.0000,  0.0000, -0.0000)
  26 C      1.229764    6.391141   15.000000    ( 0.0000,  0.0000, -0.0000)
  27 C      2.459568    7.101154   15.000000    ( 0.0000,  0.0000,  0.0000)
  28 C      0.000000    8.522324   15.000000    ( 0.0000,  0.0000, -0.0000)
  29 C      1.226405    9.231248   15.000000    ( 0.0000,  0.0000, -0.0000)
  30 C      7.377976    0.006619   15.000000    ( 0.0000,  0.0000, -0.0000)
  31 C      8.614331    0.707646   15.000000    ( 0.0000,  0.0000, -0.0000)
  32 N      6.150000    2.130460   15.000000    ( 0.0000,  0.0000,  0.0000)
  33 C      7.376842    2.838732   15.000000    ( 0.0000,  0.0000,  0.0000)
  34 C      4.924719    4.255775   15.000000    ( 0.0000,  0.0000, -0.0000)
  35 C      6.150000    4.976002   15.000000    ( 0.0000,  0.0000, -0.0000)
  36 C      3.691613    6.392353   15.000000    ( 0.0000,  0.0000,  0.0000)
  37 C      4.918080    7.101581   15.000000    ( 0.0000,  0.0000, -0.0000)
  38 C      2.461739    8.522542   15.000000    ( 0.0000,  0.0000,  0.0000)
  39 C      3.689194    9.230072   15.000000    ( 0.0000,  0.0000,  0.0000)
  40 C      9.836691    0.001913   15.000000    ( 0.0000,  0.0000, -0.0000)
  41 C     11.071113    0.711722   15.000000    ( 0.0000,  0.0000,  0.0000)
  42 C      8.603255    2.128878   15.000000    ( 0.0000,  0.0000, -0.0000)
  43 C      9.838700    2.843951   15.000000    ( 0.0000,  0.0000, -0.0000)
  44 C      7.375281    4.255775   15.000000    ( 0.0000,  0.0000, -0.0000)
  45 C      8.612294    4.968174   15.000000    ( 0.0000,  0.0000, -0.0000)
  46 C      6.150000    6.387456   15.000000    ( 0.0000,  0.0000, -0.0000)
  47 C      7.381920    7.101581   15.000000    ( 0.0000,  0.0000, -0.0000)
  48 C      4.919827    8.521584   15.000000    ( 0.0000,  0.0000,  0.0000)
  49 C      6.150000    9.231823   15.000000    ( 0.0000,  0.0000,  0.0000)

Unit cell:
           periodic     x           y           z      points  spacing
  1. axis:    yes   12.300000    0.000000    0.000000    64     0.1664
  2. axis:    yes   -6.150000   10.652112    0.000000    64     0.1664
  3. axis:    no     0.000000   -0.000000   30.000000   160     0.1875

  Lengths:  12.300000  12.300000  30.000000
  Angles:   90.000000  90.000000 120.000000

Effective grid spacing dv^(1/3) = 0.1817

convergence criteria:
- Maximum [total energy] change in last 3 cyles: 0.0005 eV / valence electron
- Maximum integral of absolute [dens]ity change: 0.0001 electrons / valence electron
- Maximum integral of absolute [eigenst]ate change: 4e-08 eV^2 / valence electron
maximum number of iterations: 333

     iter     time        total  log10-change:  magmom
                         energy   eigst   dens
iter:   1 22:01:24  -458.447106c  -3.11           +0.0000
iter:   2 22:01:33  -458.442214c  -4.62  -2.64    +0.0000
iter:   3 22:01:43  -458.432638c  -3.71  -2.69    +0.0000
iter:   4 22:01:52  -458.432550c  -4.79  -3.05    +0.0000
iter:   5 22:02:01  -458.431295c  -4.65  -3.05    +0.0000
iter:   6 22:02:10  -458.431226c  -5.45  -3.46    +0.0000
iter:   7 22:02:19  -458.431247c  -5.15  -3.48    +0.0000
iter:   8 22:02:29  -458.431110c  -5.64  -3.64    +0.0000
iter:   9 22:02:38  -458.431122c  -6.47  -3.87    +0.0000
iter:  10 22:02:47  -458.431120c  -6.38  -3.98    -0.0000
iter:  11 22:02:56  -458.431114c  -7.87c -4.28c   -0.0000
Converged in 11 steps
Energy contributions relative to reference atoms: (reference = -51835.499163)

kinetic:         433.206844
coulomb:        -443.819925
zero:              0.397754
external:          0.000000
xc:             -448.203636
entropy:          -0.024304
spinorbit:         0.000000
----------------------------
Free energy:    -458.443266
Extrapolated:   -458.431114

dipole moment: [107.844036, -118.223915, -0.004618]  # |e|*Ang

total magnetic moment: [0.000000, 0.000000, -0.000000]

local magnetic moments: [
  [ 0.000000,  0.000000, -0.000000],  # C  0
  [ 0.000000,  0.000000, -0.000000],  # C  1
  [ 0.000000,  0.000000,  0.000000],  # C  2
  [ 0.000000,  0.000000, -0.000000],  # C  3
  [ 0.000000,  0.000000, -0.000000],  # C  4
  [ 0.000000,  0.000000,  0.000000],  # C  5
  [ 0.000000,  0.000000,  0.000000],  # C  6
  [ 0.000000,  0.000000, -0.000000],  # C  7
  [ 0.000000,  0.000000,  0.000000],  # C  8
  [ 0.000000,  0.000000, -0.000000],  # C  9
  [ 0.000000,  0.000000, -0.000000],  # C  10
  [ 0.000000,  0.000000, -0.000000],  # C  11
  [ 0.000000,  0.000000,  0.000000],  # C  12
  [ 0.000000,  0.000000,  0.000000],  # C  13
  [ 0.000000,  0.000000, -0.000000],  # C  14
  [ 0.000000,  0.000000,  0.000000],  # C  15
  [ 0.000000,  0.000000,  0.000000],  # C  16
  [ 0.000000,  0.000000, -0.000000],  # C  17
  [ 0.000000,  0.000000,  0.000000],  # C  18
  [ 0.000000,  0.000000,  0.000000],  # C  19
  [ 0.000000,  0.000000, -0.000000],  # C  20
  [ 0.000000,  0.000000,  0.000000],  # C  21
  [ 0.000000,  0.000000,  0.000000],  # C  22
  [ 0.000000,  0.000000,  0.000000],  # C  23
  [ 0.000000,  0.000000, -0.000000],  # C  24
  [ 0.000000,  0.000000,  0.000000],  # C  25
  [ 0.000000,  0.000000,  0.000000],  # C  26
  [ 0.000000,  0.000000, -0.000000],  # C  27
  [ 0.000000,  0.000000,  0.000000],  # C  28
  [ 0.000000,  0.000000,  0.000000],  # C  29
  [ 0.000000,  0.000000, -0.000000],  # C  30
  [ 0.000000,  0.000000, -0.000000],  # C  31
  [ 0.000000,  0.000000, -0.000000],  # N  32
  [ 0.000000,  0.000000,  0.000000],  # C  33
  [ 0.000000,  0.000000, -0.000000],  # C  34
  [ 0.000000,  0.000000,  0.000000],  # C  35
  [ 0.000000,  0.000000,  0.000000],  # C  36
  [ 0.000000,  0.000000, -0.000000],  # C  37
  [ 0.000000,  0.000000,  0.000000],  # C  38
  [ 0.000000,  0.000000, -0.000000],  # C  39
  [ 0.000000,  0.000000, -0.000000],  # C  40
  [ 0.000000,  0.000000, -0.000000],  # C  41
  [ 0.000000,  0.000000,  0.000000],  # C  42
  [ 0.000000,  0.000000,  0.000000],  # C  43
  [ 0.000000,  0.000000, -0.000000],  # C  44
  [ 0.000000,  0.000000,  0.000000],  # C  45
  [ 0.000000,  0.000000,  0.000000],  # C  46
  [ 0.000000,  0.000000, -0.000000],  # C  47
  [ 0.000000,  0.000000,  0.000000],  # C  48
  [ 0.000000,  0.000000,  0.000000]]  # C  49


Fermi level: -2.449

kpt = [0.000, 0.000, 0.000], weight = 0.040:
  Band      eig [eV]   occ [0-1]      eig [eV]   occ [0-1]
     0       -24.796       1.000       -24.796       1.000
     1       -22.411       1.000       -22.411       1.000
     2       -21.810       1.000       -21.810       1.000
     3       -21.810       1.000       -21.810       1.000
     4       -21.620       1.000       -21.620       1.000
     5       -21.620       1.000       -21.620       1.000
     6       -21.577       1.000       -21.577       1.000
     7       -20.721       1.000       -20.721       1.000
     8       -20.020       1.000       -20.020       1.000
     9       -20.020       1.000       -20.020       1.000
    10       -19.851       1.000       -19.851       1.000
    11       -19.851       1.000       -19.851       1.000
    12       -19.798       1.000       -19.798       1.000
    13       -19.228       1.000       -19.228       1.000
    14       -19.035       1.000       -19.035       1.000
    15       -19.035       1.000       -19.035       1.000
    16       -18.934       1.000       -18.934       1.000
    17       -18.930       1.000       -18.930       1.000
    18       -18.930       1.000       -18.930       1.000
    19       -17.423       1.000       -17.423       1.000
    20       -17.002       1.000       -17.002       1.000
    21       -17.002       1.000       -17.002       1.000
    22       -16.792       1.000       -16.792       1.000
    23       -16.682       1.000       -16.682       1.000
    24       -16.681       1.000       -16.681       1.000
    25       -16.072       1.000       -16.072       1.000
    26       -16.072       1.000       -16.072       1.000
    27       -16.031       1.000       -16.031       1.000
    28       -15.775       1.000       -15.775       1.000
    29       -15.775       1.000       -15.775       1.000
    30       -15.765       1.000       -15.765       1.000
    31       -14.649       1.000       -14.649       1.000
    32       -14.638       1.000       -14.638       1.000
    33       -14.638       1.000       -14.638       1.000
    34       -14.453       1.000       -14.453       1.000
    35       -14.453       1.000       -14.453       1.000
    36       -14.427       1.000       -14.427       1.000
    37       -12.748       1.000       -12.748       1.000
    38       -12.748       1.000       -12.748       1.000
    39       -12.423       1.000       -12.423       1.000
    40       -12.116       1.000       -12.116       1.000
    41       -12.072       1.000       -12.072       1.000
    42       -12.072       1.000       -12.072       1.000
    43       -12.009       1.000       -12.009       1.000
    44       -12.009       1.000       -12.009       1.000
    45       -11.896       1.000       -11.896       1.000
    46       -11.891       1.000       -11.891       1.000
    47       -11.874       1.000       -11.874       1.000
    48       -11.874       1.000       -11.874       1.000
    49       -11.100       1.000       -11.100       1.000
    50       -10.865       1.000       -10.865       1.000
    51       -10.865       1.000       -10.865       1.000
    52       -10.597       1.000       -10.597       1.000
    53       -10.590       1.000       -10.590       1.000
    54       -10.590       1.000       -10.590       1.000
    55       -10.589       1.000       -10.589       1.000
    56       -10.212       1.000       -10.212       1.000
    57        -9.704       1.000        -9.704       1.000
    58        -9.704       1.000        -9.704       1.000
    59        -9.664       1.000        -9.664       1.000
    60        -9.664       1.000        -9.664       1.000
    61        -9.522       1.000        -9.522       1.000
    62        -9.522       1.000        -9.522       1.000
    63        -9.483       1.000        -9.483       1.000
    64        -9.391       1.000        -9.391       1.000
    65        -9.383       1.000        -9.383       1.000
    66        -9.319       1.000        -9.319       1.000
    67        -9.319       1.000        -9.319       1.000
    68        -9.206       1.000        -9.206       1.000
    69        -9.206       1.000        -9.206       1.000
    70        -9.196       1.000        -9.196       1.000
    71        -9.186       1.000        -9.186       1.000
    72        -9.163       1.000        -9.163       1.000
    73        -9.163       1.000        -9.163       1.000
    74        -8.070       1.000        -8.070       1.000
    75        -7.829       1.000        -7.829       1.000
    76        -7.829       1.000        -7.829       1.000
    77        -7.649       1.000        -7.649       1.000
    78        -7.607       1.000        -7.607       1.000
    79        -7.607       1.000        -7.607       1.000
    80        -7.538       1.000        -7.538       1.000
    81        -7.538       1.000        -7.538       1.000
    82        -7.504       1.000        -7.504       1.000
    83        -7.452       1.000        -7.452       1.000
    84        -7.452       1.000        -7.452       1.000
    85        -7.410       1.000        -7.410       1.000
    86        -6.794       1.000        -6.794       1.000
    87        -6.615       1.000        -6.615       1.000
    88        -6.615       1.000        -6.615       1.000
    89        -6.519       1.000        -6.519       1.000
    90        -6.508       1.000        -6.508       1.000
    91        -6.508       1.000        -6.508       1.000
    92        -6.166       1.000        -6.166       1.000
    93        -6.166       1.000        -6.166       1.000
    94        -4.939       1.000        -4.939       1.000
    95        -4.659       1.000        -4.659       1.000
    96        -4.659       1.000        -4.659       1.000
    97        -4.578       1.000        -4.578       1.000
    98        -4.480       1.000        -4.480       1.000
    99        -4.480       1.000        -4.480       1.000
   100        -2.322       0.074        -2.322       0.074
   101        -1.822       0.000        -1.822       0.000
   102        -1.822       0.000        -1.822       0.000
   103        -1.760       0.000        -1.760       0.000
   104        -1.695       0.000        -1.695       0.000
   105        -1.695       0.000        -1.695       0.000
   106        -0.309       0.000        -0.309       0.000
   107         0.045       0.000         0.045       0.000
   108         0.045       0.000         0.045       0.000
   109         0.146       0.000         0.146       0.000
   110         0.146       0.000         0.146       0.000
   111         0.171       0.000         0.171       0.000
   112         0.189       0.000         0.189       0.000
   113         0.891       0.000         0.891       0.000
   114         1.036       0.000         1.036       0.000
   115         1.334       0.000         1.334       0.000
   116         1.380       0.000         1.380       0.000
   117         1.448       0.000         1.448       0.000
   118         1.472       0.000         1.474       0.000
   119         1.493       0.000         1.491       0.000
   120         1.526       0.000         1.527       0.000
   121         1.538       0.000         1.538       0.000
   122         1.569       0.000         1.569       0.000
   123         1.823       0.000         1.823       0.000
   124         1.882       0.000         1.882       0.000

kpt = [0.000, 0.200, 0.000], weight = 0.080:
  Band      eig [eV]   occ [0-1]      eig [eV]   occ [0-1]
     0       -24.796       1.000       -24.796       1.000
     1       -22.397       1.000       -22.397       1.000
     2       -21.939       1.000       -21.939       1.000
     3       -21.889       1.000       -21.889       1.000
     4       -21.674       1.000       -21.674       1.000
     5       -21.468       1.000       -21.468       1.000
     6       -21.262       1.000       -21.262       1.000
     7       -20.849       1.000       -20.849       1.000
     8       -20.382       1.000       -20.382       1.000
     9       -20.125       1.000       -20.125       1.000
    10       -19.912       1.000       -19.912       1.000
    11       -19.691       1.000       -19.691       1.000
    12       -19.539       1.000       -19.539       1.000
    13       -19.320       1.000       -19.320       1.000
    14       -19.319       1.000       -19.319       1.000
    15       -19.257       1.000       -19.257       1.000
    16       -18.690       1.000       -18.690       1.000
    17       -18.597       1.000       -18.597       1.000
    18       -18.289       1.000       -18.289       1.000
    19       -17.743       1.000       -17.743       1.000
    20       -17.334       1.000       -17.334       1.000
    21       -17.156       1.000       -17.156       1.000
    22       -17.111       1.000       -17.111       1.000
    23       -16.816       1.000       -16.816       1.000
    24       -16.758       1.000       -16.758       1.000
    25       -16.054       1.000       -16.054       1.000
    26       -15.995       1.000       -15.995       1.000
    27       -15.693       1.000       -15.693       1.000
    28       -15.576       1.000       -15.576       1.000
    29       -15.532       1.000       -15.532       1.000
    30       -15.315       1.000       -15.315       1.000
    31       -15.258       1.000       -15.258       1.000
    32       -14.991       1.000       -14.991       1.000
    33       -14.976       1.000       -14.976       1.000
    34       -14.046       1.000       -14.046       1.000
    35       -14.045       1.000       -14.045       1.000
    36       -13.563       1.000       -13.563       1.000
    37       -13.260       1.000       -13.260       1.000
    38       -12.972       1.000       -12.972       1.000
    39       -12.764       1.000       -12.764       1.000
    40       -12.709       1.000       -12.709       1.000
    41       -12.426       1.000       -12.426       1.000
    42       -12.360       1.000       -12.360       1.000
    43       -12.135       1.000       -12.135       1.000
    44       -11.967       1.000       -11.967       1.000
    45       -11.728       1.000       -11.728       1.000
    46       -11.473       1.000       -11.473       1.000
    47       -11.313       1.000       -11.313       1.000
    48       -11.309       1.000       -11.309       1.000
    49       -11.188       1.000       -11.188       1.000
    50       -11.137       1.000       -11.137       1.000
    51       -11.083       1.000       -11.083       1.000
    52       -10.603       1.000       -10.603       1.000
    53       -10.420       1.000       -10.420       1.000
    54       -10.315       1.000       -10.315       1.000
    55       -10.272       1.000       -10.272       1.000
    56       -10.119       1.000       -10.119       1.000
    57       -10.012       1.000       -10.012       1.000
    58        -9.841       1.000        -9.841       1.000
    59        -9.818       1.000        -9.818       1.000
    60        -9.813       1.000        -9.813       1.000
    61        -9.782       1.000        -9.782       1.000
    62        -9.589       1.000        -9.589       1.000
    63        -9.567       1.000        -9.567       1.000
    64        -9.494       1.000        -9.494       1.000
    65        -9.480       1.000        -9.480       1.000
    66        -9.318       1.000        -9.318       1.000
    67        -9.289       1.000        -9.289       1.000
    68        -9.279       1.000        -9.279       1.000
    69        -9.095       1.000        -9.095       1.000
    70        -9.094       1.000        -9.094       1.000
    71        -8.843       1.000        -8.843       1.000
    72        -8.836       1.000        -8.836       1.000
    73        -8.370       1.000        -8.370       1.000
    74        -8.328       1.000        -8.328       1.000
    75        -8.130       1.000        -8.130       1.000
    76        -8.038       1.000        -8.038       1.000
    77        -8.038       1.000        -8.038       1.000
    78        -7.910       1.000        -7.910       1.000
    79        -7.653       1.000        -7.653       1.000
    80        -7.574       1.000        -7.574       1.000
    81        -7.515       1.000        -7.515       1.000
    82        -7.456       1.000        -7.456       1.000
    83        -7.294       1.000        -7.294       1.000
    84        -7.223       1.000        -7.223       1.000
    85        -7.040       1.000        -7.040       1.000
    86        -6.888       1.000        -6.888       1.000
    87        -6.872       1.000        -6.872       1.000
    88        -6.800       1.000        -6.800       1.000
    89        -6.319       1.000        -6.319       1.000
    90        -6.265       1.000        -6.265       1.000
    91        -6.245       1.000        -6.245       1.000
    92        -6.193       1.000        -6.193       1.000
    93        -5.957       1.000        -5.957       1.000
    94        -5.185       1.000        -5.185       1.000
    95        -4.986       1.000        -4.986       1.000
    96        -4.851       1.000        -4.851       1.000
    97        -4.796       1.000        -4.796       1.000
    98        -4.363       1.000        -4.363       1.000
    99        -4.286       1.000        -4.286       1.000
   100        -2.312       0.061        -2.312       0.061
   101        -1.952       0.000        -1.952       0.000
   102        -1.732       0.000        -1.732       0.000
   103        -1.544       0.000        -1.544       0.000
   104        -1.462       0.000        -1.462       0.000
   105        -1.405       0.000        -1.405       0.000
   106        -0.821       0.000        -0.821       0.000
   107        -0.470       0.000        -0.470       0.000
   108        -0.377       0.000        -0.377       0.000
   109         0.222       0.000         0.222       0.000
   110         0.436       0.000         0.436       0.000
   111         0.583       0.000         0.583       0.000
   112         0.850       0.000         0.850       0.000
   113         0.945       0.000         0.945       0.000
   114         0.989       0.000         0.989       0.000
   115         1.002       0.000         1.002       0.000
   116         1.090       0.000         1.090       0.000
   117         1.102       0.000         1.102       0.000
   118         1.257       0.000         1.257       0.000
   119         1.274       0.000         1.274       0.000
   120         1.434       0.000         1.434       0.000
   121         1.616       0.000         1.616       0.000
   122         1.680       0.000         1.680       0.000
   123         1.748       0.000         1.748       0.000
   124         1.753       0.000         1.753       0.000

kpt = [0.000, 0.400, 0.000], weight = 0.080:
  Band      eig [eV]   occ [0-1]      eig [eV]   occ [0-1]
     0       -24.796       1.000       -24.796       1.000
     1       -22.361       1.000       -22.361       1.000
     2       -22.099       1.000       -22.099       1.000
     3       -21.955       1.000       -21.955       1.000
     4       -21.572       1.000       -21.572       1.000
     5       -21.183       1.000       -21.183       1.000
     6       -21.078       1.000       -21.078       1.000
     7       -20.816       1.000       -20.816       1.000
     8       -20.813       1.000       -20.813       1.000
     9       -20.336       1.000       -20.336       1.000
    10       -20.051       1.000       -20.051       1.000
    11       -19.845       1.000       -19.845       1.000
    12       -19.539       1.000       -19.539       1.000
    13       -19.509       1.000       -19.509       1.000
    14       -19.022       1.000       -19.022       1.000
    15       -18.653       1.000       -18.653       1.000
    16       -18.402       1.000       -18.402       1.000
    17       -18.163       1.000       -18.163       1.000
    18       -18.158       1.000       -18.158       1.000
    19       -17.967       1.000       -17.967       1.000
    20       -17.680       1.000       -17.680       1.000
    21       -17.643       1.000       -17.643       1.000
    22       -17.576       1.000       -17.576       1.000
    23       -16.840       1.000       -16.840       1.000
    24       -16.783       1.000       -16.783       1.000
    25       -16.299       1.000       -16.299       1.000
    26       -15.853       1.000       -15.853       1.000
    27       -15.811       1.000       -15.811       1.000
    28       -15.426       1.000       -15.426       1.000
    29       -15.378       1.000       -15.378       1.000
    30       -15.169       1.000       -15.169       1.000
    31       -15.091       1.000       -15.091       1.000
    32       -14.719       1.000       -14.719       1.000
    33       -14.447       1.000       -14.447       1.000
    34       -13.967       1.000       -13.967       1.000
    35       -13.650       1.000       -13.650       1.000
    36       -13.556       1.000       -13.556       1.000
    37       -13.517       1.000       -13.517       1.000
    38       -13.298       1.000       -13.298       1.000
    39       -13.291       1.000       -13.291       1.000
    40       -12.888       1.000       -12.888       1.000
    41       -12.860       1.000       -12.860       1.000
    42       -12.508       1.000       -12.508       1.000
    43       -12.186       1.000       -12.186       1.000
    44       -11.857       1.000       -11.857       1.000
    45       -11.561       1.000       -11.561       1.000
    46       -11.552       1.000       -11.552       1.000
    47       -11.443       1.000       -11.443       1.000
    48       -11.098       1.000       -11.098       1.000
    49       -11.052       1.000       -11.052       1.000
    50       -10.942       1.000       -10.942       1.000
    51       -10.729       1.000       -10.729       1.000
    52       -10.664       1.000       -10.664       1.000
    53       -10.390       1.000       -10.390       1.000
    54       -10.389       1.000       -10.389       1.000
    55       -10.360       1.000       -10.360       1.000
    56       -10.119       1.000       -10.119       1.000
    57       -10.071       1.000       -10.071       1.000
    58        -9.986       1.000        -9.986       1.000
    59        -9.873       1.000        -9.873       1.000
    60        -9.866       1.000        -9.866       1.000
    61        -9.861       1.000        -9.861       1.000
    62        -9.637       1.000        -9.637       1.000
    63        -9.593       1.000        -9.593       1.000
    64        -9.536       1.000        -9.536       1.000
    65        -9.245       1.000        -9.245       1.000
    66        -9.211       1.000        -9.211       1.000
    67        -9.203       1.000        -9.203       1.000
    68        -8.974       1.000        -8.974       1.000
    69        -8.838       1.000        -8.838       1.000
    70        -8.741       1.000        -8.741       1.000
    71        -8.651       1.000        -8.651       1.000
    72        -8.630       1.000        -8.630       1.000
    73        -8.556       1.000        -8.556       1.000
    74        -8.544       1.000        -8.544       1.000
    75        -8.441       1.000        -8.441       1.000
    76        -8.421       1.000        -8.421       1.000
    77        -8.379       1.000        -8.379       1.000
    78        -7.978       1.000        -7.978       1.000
    79        -7.780       1.000        -7.780       1.000
    80        -7.574       1.000        -7.574       1.000
    81        -7.524       1.000        -7.524       1.000
    82        -7.371       1.000        -7.371       1.000
    83        -7.366       1.000        -7.366       1.000
    84        -7.132       1.000        -7.132       1.000
    85        -7.105       1.000        -7.105       1.000
    86        -6.860       1.000        -6.860       1.000
    87        -6.748       1.000        -6.748       1.000
    88        -6.453       1.000        -6.453       1.000
    89        -6.430       1.000        -6.430       1.000
    90        -6.138       1.000        -6.138       1.000
    91        -5.896       1.000        -5.896       1.000
    92        -5.793       1.000        -5.793       1.000
    93        -5.682       1.000        -5.682       1.000
    94        -5.467       1.000        -5.467       1.000
    95        -5.434       1.000        -5.434       1.000
    96        -5.318       1.000        -5.318       1.000
    97        -5.314       1.000        -5.314       1.000
    98        -4.222       1.000        -4.222       1.000
    99        -4.127       1.000        -4.127       1.000
   100        -2.351       0.123        -2.351       0.123
   101        -2.044       0.000        -2.044       0.000
   102        -1.568       0.000        -1.568       0.000
   103        -1.271       0.000        -1.271       0.000
   104        -1.218       0.000        -1.218       0.000
   105        -0.891       0.000        -0.891       0.000
   106        -0.804       0.000        -0.804       0.000
   107        -0.789       0.000        -0.789       0.000
   108        -0.727       0.000        -0.727       0.000
   109        -0.028       0.000        -0.028       0.000
   110         0.117       0.000         0.117       0.000
   111         0.370       0.000         0.370       0.000
   112         0.644       0.000         0.644       0.000
   113         0.897       0.000         0.897       0.000
   114         1.043       0.000         1.043       0.000
   115         1.101       0.000         1.101       0.000
   116         1.150       0.000         1.150       0.000
   117         1.172       0.000         1.172       0.000
   118         1.250       0.000         1.250       0.000
   119         1.363       0.000         1.363       0.000
   120         1.436       0.000         1.436       0.000
   121         1.473       0.000         1.473       0.000
   122         1.514       0.000         1.514       0.000
   123         1.593       0.000         1.593       0.000
   124         1.775       0.000         1.775       0.000
(only showing first 3 out of 9 k-points)

No gap
No difference between direct/indirect transitions
vacuum-level: 1.174  # V

Forces: [  # eV/Ang
  [    0.0000,     0.0076,     0.0000],  # C  0
  [    0.0543,    -0.0314,     0.0000],  # C  1
  [   -0.0523,     0.0910,     0.0000],  # C  2
  [   -0.0000,    -0.0427,     0.0000],  # C  3
  [    0.0606,     0.0351,     0.0000],  # C  4
  [    0.0149,     0.0085,     0.0000],  # C  5
  [    0.0529,    -0.0907,     0.0000],  # C  6
  [   -0.0371,     0.0216,     0.0000],  # C  7
  [    0.0070,    -0.0044,     0.0000],  # C  8
  [   -0.0002,     0.0634,     0.0000],  # C  9
  [   -0.1150,    -0.0670,     0.0000],  # C  10
  [    0.0923,     0.0535,     0.0000],  # C  11
  [    0.0523,     0.0910,     0.0000],  # C  12
  [    0.2054,    -0.0967,     0.0000],  # C  13
  [    0.0000,     0.0240,     0.0000],  # C  14
  [   -0.0149,     0.0085,     0.0000],  # C  15
  [    0.0207,    -0.0118,     0.0000],  # C  16
  [   -0.0000,    -0.0171,     0.0000],  # C  17
  [    0.1052,    -0.0007,     0.0000],  # C  18
  [    0.0187,     0.2265,     0.0000],  # C  19
  [    0.0219,     0.0118,     0.0000],  # C  20
  [    0.0000,     0.2718,     0.0000],  # C  21
  [    0.0219,     0.0122,     0.0000],  # C  22
  [    0.2350,    -0.1350,     0.0000],  # C  23
  [   -0.0606,     0.0351,     0.0000],  # C  24
  [    0.1864,    -0.1295,     0.0000],  # C  25
  [   -0.0207,    -0.0118,     0.0000],  # C  26
  [    0.0371,     0.0216,     0.0000],  # C  27
  [   -0.0000,    -0.0704,     0.0000],  # C  28
  [   -0.0187,     0.2265,     0.0000],  # C  29
  [   -0.0219,     0.0118,     0.0000],  # C  30
  [   -0.0923,     0.0535,     0.0000],  # C  31
  [    0.0000,     0.0000,     0.0000],  # N  32
  [   -0.2350,    -0.1350,     0.0000],  # C  33
  [   -0.0000,    -0.0247,     0.0000],  # C  34
  [   -0.0000,    -0.1069,     0.0000],  # C  35
  [   -0.0529,    -0.0907,     0.0000],  # C  36
  [    0.0545,    -0.0311,     0.0000],  # C  37
  [   -0.1052,    -0.0007,     0.0000],  # C  38
  [    0.0002,     0.0634,     0.0000],  # C  39
  [    0.1150,    -0.0670,     0.0000],  # C  40
  [   -0.0543,    -0.0314,     0.0000],  # C  41
  [   -0.0219,     0.0122,     0.0000],  # C  42
  [   -0.2054,    -0.0967,     0.0000],  # C  43
  [    0.0000,    -0.0247,     0.0000],  # C  44
  [   -0.1864,    -0.1295,     0.0000],  # C  45
  [    0.0000,     0.1331,     0.0000],  # C  46
  [   -0.0545,    -0.0311,     0.0000],  # C  47
  [   -0.0070,    -0.0044,     0.0000],  # C  48
  [    0.0000,     0.0004,     0.0000]]  # C  49
                                                             
                                                             
                                                             
                                                             
            C   C C   C C   C C   C C   C                    
              C  C  C  C  C  C  C   C C   C                  
                   C     C     C     C     C                 
                C     C     C     C     C                    
                 C   C C   C  C  C  N  C  C  C               
                   C   C C   C C   C C   C C   C             
                                                             
                                                             
                                                             
                                                             

Atomic positions and initial magnetic moments

Positions:
   0 C      0.000000    0.000354   15.000000    ( 0.0000,  0.0000, -0.0000)
   1 C      1.229366    0.711670   15.000000    ( 0.0000,  0.0000, -0.0000)
   2 C     -1.230564    2.129285   15.000000    ( 0.0000,  0.0000,  0.0000)
   3 C      0.000000    2.840579   15.000000    ( 0.0000,  0.0000, -0.0000)
   4 C     -2.459856    4.260917   15.000000    ( 0.0000,  0.0000, -0.0000)
   5 C     -1.228920    4.971623   15.000000    ( 0.0000,  0.0000,  0.0000)
   6 C     -3.691272    6.391368   15.000000    ( 0.0000,  0.0000,  0.0000)
   7 C     -2.459973    7.101390   15.000000    ( 0.0000,  0.0000, -0.0000)
   8 C     -4.919691    8.521498   15.000000    ( 0.0000,  0.0000,  0.0000)
   9 C     -3.689003    9.230521   15.000000    ( 0.0000,  0.0000, -0.0000)
  10 C      2.462522    0.001451   15.000000    ( 0.0000,  0.0000, -0.0000)
  11 C      3.685901    0.707784   15.000000    ( 0.0000,  0.0000, -0.0000)
  12 C      1.230564    2.129285   15.000000    ( 0.0000,  0.0000,  0.0000)
  13 C      2.464427    2.843433   15.000000    ( 0.0000,  0.0000,  0.0000)
  14 C     -0.000000    4.261499   15.000000    ( 0.0000,  0.0000, -0.0000)
  15 C      1.228920    4.971623   15.000000    ( 0.0000,  0.0000,  0.0000)
  16 C     -1.229424    6.390949   15.000000    ( 0.0000,  0.0000,  0.0000)
  17 C      0.000000    7.100158   15.000000    ( 0.0000,  0.0000, -0.0000)
  18 C     -2.460710    8.522735   15.000000    ( 0.0000,  0.0000,  0.0000)
  19 C     -1.225290    9.234216   15.000000    ( 0.0000,  0.0000,  0.0000)
  20 C      4.922807    0.008361   15.000000    ( 0.0000,  0.0000, -0.0000)
  21 C      6.150000    0.718385   15.000000    ( 0.0000,  0.0000,  0.0000)
  22 C      3.698655    2.128677   15.000000    ( 0.0000,  0.0000,  0.0000)
  23 C      4.927134    2.836444   15.000000    ( 0.0000,  0.0000,  0.0000)
  24 C      2.459856    4.260917   15.000000    ( 0.0000,  0.0000, -0.0000)
  25 C      3.689715    4.965727   15.000000    ( 0.0000,  0.0000,  0.0000)
  26 C      1.229424    6.390949   15.000000    ( 0.0000,  0.0000,  0.0000)
  27 C      2.459973    7.101390   15.000000    ( 0.0000,  0.0000, -0.0000)
  28 C     -0.000000    8.521511   15.000000    ( 0.0000,  0.0000,  0.0000)
  29 C      1.225290    9.234216   15.000000    ( 0.0000,  0.0000,  0.0000)
  30 C      7.377193    0.008361   15.000000    ( 0.0000,  0.0000, -0.0000)
  31 C      8.614099    0.707784   15.000000    ( 0.0000,  0.0000, -0.0000)
  32 N      6.150000    2.130469   15.000000    ( 0.0000,  0.0000, -0.0000)
  33 C      7.372866    2.836444   15.000000    ( 0.0000,  0.0000,  0.0000)
  34 C      4.925844    4.254225   15.000000    ( 0.0000,  0.0000, -0.0000)
  35 C      6.150000    4.975734   15.000000    ( 0.0000,  0.0000,  0.0000)
  36 C      3.691272    6.391368   15.000000    ( 0.0000,  0.0000,  0.0000)
  37 C      4.918369    7.101196   15.000000    ( 0.0000,  0.0000, -0.0000)
  38 C      2.460710    8.522735   15.000000    ( 0.0000,  0.0000,  0.0000)
  39 C      3.689003    9.230521   15.000000    ( 0.0000,  0.0000, -0.0000)
  40 C      9.837478    0.001451   15.000000    ( 0.0000,  0.0000, -0.0000)
  41 C     11.070634    0.711670   15.000000    ( 0.0000,  0.0000, -0.0000)
  42 C      8.601345    2.128677   15.000000    ( 0.0000,  0.0000,  0.0000)
  43 C      9.835573    2.843433   15.000000    ( 0.0000,  0.0000,  0.0000)
  44 C      7.374156    4.254225   15.000000    ( 0.0000,  0.0000, -0.0000)
  45 C      8.610285    4.965727   15.000000    ( 0.0000,  0.0000,  0.0000)
  46 C      6.150000    6.388372   15.000000    ( 0.0000,  0.0000,  0.0000)
  47 C      7.381631    7.101196   15.000000    ( 0.0000,  0.0000, -0.0000)
  48 C      4.919691    8.521498   15.000000    ( 0.0000,  0.0000,  0.0000)
  49 C      6.150000    9.231827   15.000000    ( 0.0000,  0.0000,  0.0000)

Unit cell:
           periodic     x           y           z      points  spacing
  1. axis:    yes   12.300000    0.000000    0.000000    64     0.1664
  2. axis:    yes   -6.150000   10.652112    0.000000    64     0.1664
  3. axis:    no     0.000000   -0.000000   30.000000   160     0.1875

  Lengths:  12.300000  12.300000  30.000000
  Angles:   90.000000  90.000000 120.000000

Effective grid spacing dv^(1/3) = 0.1817

convergence criteria:
- Maximum [total energy] change in last 3 cyles: 0.0005 eV / valence electron
- Maximum integral of absolute [dens]ity change: 0.0001 electrons / valence electron
- Maximum integral of absolute [eigenst]ate change: 4e-08 eV^2 / valence electron
maximum number of iterations: 333

     iter     time        total  log10-change:  magmom
                         energy   eigst   dens
iter:   1 22:03:09  -458.445516c  -3.61           -0.0000
iter:   2 22:03:19  -458.442753c  -5.18  -2.98    -0.0000
iter:   3 22:03:28  -458.438275c  -4.11  -3.06    +0.0000
iter:   4 22:03:37  -458.438370c  -5.46  -3.38    +0.0000
iter:   5 22:03:46  -458.438179c  -5.88  -3.49    +0.0000
iter:   6 22:03:55  -458.438076c  -5.68  -3.69    +0.0000
iter:   7 22:04:05  -458.438070c  -6.35  -3.87    +0.0000
iter:   8 22:04:14  -458.438064c  -7.45c -4.30c   +0.0000
Converged in 8 steps
Energy contributions relative to reference atoms: (reference = -51835.499163)

kinetic:         433.075975
coulomb:        -443.705823
zero:              0.397261
external:          0.000000
xc:             -448.193551
entropy:          -0.023854
spinorbit:         0.000000
----------------------------
Free energy:    -458.449991
Extrapolated:   -458.438064

dipole moment: [59.053166, -118.087653, -0.001783]  # |e|*Ang

[...]
    84        -7.447       1.000        -7.447       1.000
    85        -7.406       1.000        -7.406       1.000
    86        -6.784       1.000        -6.784       1.000
    87        -6.612       1.000        -6.612       1.000
    88        -6.612       1.000        -6.612       1.000
    89        -6.513       1.000        -6.513       1.000
    90        -6.509       1.000        -6.509       1.000
    91        -6.509       1.000        -6.509       1.000
    92        -6.162       1.000        -6.162       1.000
    93        -6.162       1.000        -6.162       1.000
    94        -4.944       1.000        -4.944       1.000
    95        -4.659       1.000        -4.659       1.000
    96        -4.659       1.000        -4.659       1.000
    97        -4.581       1.000        -4.581       1.000
    98        -4.471       1.000        -4.471       1.000
    99        -4.471       1.000        -4.471       1.000
   100        -2.308       0.065        -2.308       0.065
   101        -1.827       0.000        -1.827       0.000
   102        -1.827       0.000        -1.827       0.000
   103        -1.752       0.000        -1.752       0.000
   104        -1.700       0.000        -1.700       0.000
   105        -1.700       0.000        -1.700       0.000
   106        -0.304       0.000        -0.304       0.000
   107         0.046       0.000         0.046       0.000
   108         0.046       0.000         0.046       0.000
   109         0.146       0.000         0.146       0.000
   110         0.146       0.000         0.146       0.000
   111         0.170       0.000         0.170       0.000
   112         0.183       0.000         0.183       0.000
   113         0.891       0.000         0.891       0.000
   114         1.036       0.000         1.036       0.000
   115         1.328       0.000         1.328       0.000
   116         1.379       0.000         1.379       0.000
   117         1.446       0.000         1.446       0.000
   118         1.446       0.000         1.446       0.000
   119         1.487       0.000         1.487       0.000
   120         1.519       0.000         1.519       0.000
   121         1.541       0.000         1.541       0.000
   122         1.568       0.000         1.569       0.000
   123         1.569       0.000         1.572       0.000
   124         1.824       0.000         1.824       0.000

kpt = [0.000, 0.200, 0.000], weight = 0.080:
  Band      eig [eV]   occ [0-1]      eig [eV]   occ [0-1]
     0       -24.932       1.000       -24.932       1.000
     1       -22.388       1.000       -22.388       1.000
     2       -21.935       1.000       -21.935       1.000
     3       -21.894       1.000       -21.894       1.000
     4       -21.673       1.000       -21.673       1.000
     5       -21.460       1.000       -21.460       1.000
     6       -21.249       1.000       -21.249       1.000
     7       -20.865       1.000       -20.865       1.000
     8       -20.381       1.000       -20.381       1.000
     9       -20.128       1.000       -20.128       1.000
    10       -19.919       1.000       -19.919       1.000
    11       -19.684       1.000       -19.684       1.000
    12       -19.541       1.000       -19.541       1.000
    13       -19.314       1.000       -19.314       1.000
    14       -19.314       1.000       -19.314       1.000
    15       -19.256       1.000       -19.256       1.000
    16       -18.681       1.000       -18.681       1.000
    17       -18.596       1.000       -18.596       1.000
    18       -18.287       1.000       -18.287       1.000
    19       -17.758       1.000       -17.758       1.000
    20       -17.343       1.000       -17.343       1.000
    21       -17.151       1.000       -17.151       1.000
    22       -17.101       1.000       -17.101       1.000
    23       -16.811       1.000       -16.811       1.000
    24       -16.766       1.000       -16.766       1.000
    25       -16.061       1.000       -16.061       1.000
    26       -16.007       1.000       -16.007       1.000
    27       -15.711       1.000       -15.711       1.000
    28       -15.578       1.000       -15.578       1.000
    29       -15.536       1.000       -15.536       1.000
    30       -15.303       1.000       -15.303       1.000
    31       -15.250       1.000       -15.250       1.000
    32       -14.989       1.000       -14.989       1.000
    33       -14.973       1.000       -14.973       1.000
    34       -14.047       1.000       -14.047       1.000
    35       -14.045       1.000       -14.045       1.000
    36       -13.569       1.000       -13.569       1.000
    37       -13.279       1.000       -13.279       1.000
    38       -12.996       1.000       -12.996       1.000
    39       -12.767       1.000       -12.767       1.000
    40       -12.704       1.000       -12.704       1.000
    41       -12.420       1.000       -12.420       1.000
    42       -12.357       1.000       -12.357       1.000
    43       -12.136       1.000       -12.136       1.000
    44       -11.972       1.000       -11.972       1.000
    45       -11.740       1.000       -11.740       1.000
    46       -11.468       1.000       -11.468       1.000
    47       -11.309       1.000       -11.309       1.000
    48       -11.305       1.000       -11.305       1.000
    49       -11.182       1.000       -11.182       1.000
    50       -11.144       1.000       -11.144       1.000
    51       -11.136       1.000       -11.136       1.000
    52       -10.602       1.000       -10.602       1.000
    53       -10.415       1.000       -10.415       1.000
    54       -10.312       1.000       -10.312       1.000
    55       -10.278       1.000       -10.278       1.000
    56       -10.123       1.000       -10.123       1.000
    57       -10.015       1.000       -10.015       1.000
    58        -9.835       1.000        -9.835       1.000
    59        -9.813       1.000        -9.813       1.000
    60        -9.809       1.000        -9.809       1.000
    61        -9.781       1.000        -9.781       1.000
    62        -9.596       1.000        -9.596       1.000
    63        -9.577       1.000        -9.577       1.000
    64        -9.497       1.000        -9.497       1.000
    65        -9.486       1.000        -9.486       1.000
    66        -9.311       1.000        -9.311       1.000
    67        -9.276       1.000        -9.276       1.000
    68        -9.267       1.000        -9.267       1.000
    69        -9.089       1.000        -9.089       1.000
    70        -9.085       1.000        -9.085       1.000
    71        -8.841       1.000        -8.841       1.000
    72        -8.830       1.000        -8.830       1.000
    73        -8.365       1.000        -8.365       1.000
    74        -8.344       1.000        -8.344       1.000
    75        -8.125       1.000        -8.125       1.000
    76        -8.038       1.000        -8.038       1.000
    77        -8.034       1.000        -8.034       1.000
    78        -7.907       1.000        -7.907       1.000
    79        -7.658       1.000        -7.658       1.000
    80        -7.574       1.000        -7.574       1.000
    81        -7.509       1.000        -7.509       1.000
    82        -7.457       1.000        -7.457       1.000
    83        -7.290       1.000        -7.290       1.000
    84        -7.225       1.000        -7.225       1.000
    85        -7.038       1.000        -7.038       1.000
    86        -6.885       1.000        -6.885       1.000
    87        -6.870       1.000        -6.870       1.000
    88        -6.798       1.000        -6.798       1.000
    89        -6.315       1.000        -6.315       1.000
    90        -6.259       1.000        -6.259       1.000
    91        -6.240       1.000        -6.240       1.000
    92        -6.192       1.000        -6.192       1.000
    93        -5.956       1.000        -5.956       1.000
    94        -5.188       1.000        -5.188       1.000
    95        -4.988       1.000        -4.988       1.000
    96        -4.847       1.000        -4.847       1.000
    97        -4.789       1.000        -4.789       1.000
    98        -4.358       1.000        -4.358       1.000
    99        -4.285       1.000        -4.285       1.000
   100        -2.300       0.057        -2.300       0.057
   101        -1.954       0.000        -1.954       0.000
   102        -1.735       0.000        -1.735       0.000
   103        -1.543       0.000        -1.543       0.000
   104        -1.468       0.000        -1.468       0.000
   105        -1.407       0.000        -1.407       0.000
   106        -0.821       0.000        -0.821       0.000
   107        -0.468       0.000        -0.468       0.000
   108        -0.376       0.000        -0.376       0.000
   109         0.221       0.000         0.221       0.000
   110         0.435       0.000         0.435       0.000
   111         0.583       0.000         0.583       0.000
   112         0.847       0.000         0.847       0.000
   113         0.945       0.000         0.945       0.000
   114         0.987       0.000         0.987       0.000
   115         1.000       0.000         1.000       0.000
   116         1.090       0.000         1.090       0.000
   117         1.101       0.000         1.101       0.000
   118         1.257       0.000         1.257       0.000
   119         1.274       0.000         1.274       0.000
   120         1.434       0.000         1.434       0.000
   121         1.616       0.000         1.616       0.000
   122         1.676       0.000         1.676       0.000
   123         1.748       0.000         1.748       0.000
   124         1.752       0.000         1.752       0.000

kpt = [0.000, 0.400, 0.000], weight = 0.080:
  Band      eig [eV]   occ [0-1]      eig [eV]   occ [0-1]
     0       -24.932       1.000       -24.932       1.000
     1       -22.353       1.000       -22.353       1.000
     2       -22.091       1.000       -22.091       1.000
     3       -21.958       1.000       -21.958       1.000
     4       -21.574       1.000       -21.574       1.000
     5       -21.178       1.000       -21.178       1.000
     6       -21.091       1.000       -21.091       1.000
     7       -20.810       1.000       -20.810       1.000
     8       -20.807       1.000       -20.807       1.000
     9       -20.326       1.000       -20.326       1.000
    10       -20.058       1.000       -20.058       1.000
    11       -19.856       1.000       -19.856       1.000
    12       -19.526       1.000       -19.526       1.000
    13       -19.502       1.000       -19.502       1.000
    14       -19.033       1.000       -19.033       1.000
    15       -18.652       1.000       -18.652       1.000
    16       -18.413       1.000       -18.413       1.000
    17       -18.162       1.000       -18.162       1.000
    18       -18.155       1.000       -18.155       1.000
    19       -17.968       1.000       -17.968       1.000
    20       -17.670       1.000       -17.670       1.000
    21       -17.637       1.000       -17.637       1.000
    22       -17.571       1.000       -17.571       1.000
    23       -16.838       1.000       -16.838       1.000
    24       -16.794       1.000       -16.794       1.000
    25       -16.304       1.000       -16.304       1.000
    26       -15.858       1.000       -15.858       1.000
    27       -15.824       1.000       -15.824       1.000
    28       -15.425       1.000       -15.425       1.000
    29       -15.376       1.000       -15.376       1.000
    30       -15.175       1.000       -15.175       1.000
    31       -15.091       1.000       -15.091       1.000
    32       -14.726       1.000       -14.726       1.000
    33       -14.441       1.000       -14.441       1.000
    34       -13.980       1.000       -13.980       1.000
    35       -13.663       1.000       -13.663       1.000
    36       -13.562       1.000       -13.562       1.000
    37       -13.519       1.000       -13.519       1.000
    38       -13.294       1.000       -13.294       1.000
    39       -13.289       1.000       -13.289       1.000
    40       -12.880       1.000       -12.880       1.000
    41       -12.855       1.000       -12.855       1.000
    42       -12.509       1.000       -12.509       1.000
    43       -12.206       1.000       -12.206       1.000
    44       -11.868       1.000       -11.868       1.000
    45       -11.565       1.000       -11.565       1.000
    46       -11.538       1.000       -11.538       1.000
    47       -11.435       1.000       -11.435       1.000
    48       -11.119       1.000       -11.119       1.000
    49       -11.106       1.000       -11.106       1.000
    50       -10.941       1.000       -10.941       1.000
    51       -10.731       1.000       -10.731       1.000
    52       -10.674       1.000       -10.674       1.000
    53       -10.388       1.000       -10.388       1.000
    54       -10.382       1.000       -10.382       1.000
    55       -10.354       1.000       -10.354       1.000
    56       -10.117       1.000       -10.117       1.000
    57       -10.067       1.000       -10.067       1.000
    58        -9.981       1.000        -9.981       1.000
    59        -9.868       1.000        -9.868       1.000
    60        -9.867       1.000        -9.867       1.000
    61        -9.864       1.000        -9.864       1.000
    62        -9.642       1.000        -9.642       1.000
    63        -9.583       1.000        -9.583       1.000
    64        -9.530       1.000        -9.530       1.000
    65        -9.255       1.000        -9.255       1.000
    66        -9.211       1.000        -9.211       1.000
    67        -9.197       1.000        -9.197       1.000
    68        -8.969       1.000        -8.969       1.000
    69        -8.833       1.000        -8.833       1.000
    70        -8.749       1.000        -8.749       1.000
    71        -8.646       1.000        -8.646       1.000
    72        -8.632       1.000        -8.632       1.000
    73        -8.549       1.000        -8.549       1.000
    74        -8.540       1.000        -8.540       1.000
    75        -8.435       1.000        -8.435       1.000
    76        -8.409       1.000        -8.409       1.000
    77        -8.378       1.000        -8.378       1.000
    78        -7.973       1.000        -7.973       1.000
    79        -7.782       1.000        -7.782       1.000
    80        -7.584       1.000        -7.584       1.000
    81        -7.521       1.000        -7.521       1.000
    82        -7.369       1.000        -7.369       1.000
    83        -7.364       1.000        -7.364       1.000
    84        -7.121       1.000        -7.121       1.000
    85        -7.102       1.000        -7.102       1.000
    86        -6.863       1.000        -6.863       1.000
    87        -6.744       1.000        -6.744       1.000
    88        -6.445       1.000        -6.445       1.000
    89        -6.440       1.000        -6.440       1.000
    90        -6.137       1.000        -6.137       1.000
    91        -5.894       1.000        -5.894       1.000
    92        -5.792       1.000        -5.792       1.000
    93        -5.684       1.000        -5.684       1.000
    94        -5.468       1.000        -5.468       1.000
    95        -5.431       1.000        -5.431       1.000
    96        -5.310       1.000        -5.310       1.000
    97        -5.306       1.000        -5.306       1.000
    98        -4.218       1.000        -4.218       1.000
    99        -4.127       1.000        -4.127       1.000
   100        -2.342       0.122        -2.342       0.122
   101        -2.046       0.000        -2.046       0.000
   102        -1.568       0.000        -1.568       0.000
   103        -1.271       0.000        -1.271       0.000
   104        -1.219       0.000        -1.219       0.000
   105        -0.891       0.000        -0.891       0.000
   106        -0.802       0.000        -0.802       0.000
   107        -0.791       0.000        -0.791       0.000
   108        -0.727       0.000        -0.727       0.000
   109        -0.030       0.000        -0.030       0.000
   110         0.116       0.000         0.116       0.000
   111         0.367       0.000         0.367       0.000
   112         0.644       0.000         0.644       0.000
   113         0.896       0.000         0.896       0.000
   114         1.044       0.000         1.044       0.000
   115         1.101       0.000         1.101       0.000
   116         1.150       0.000         1.150       0.000
   117         1.172       0.000         1.172       0.000
   118         1.250       0.000         1.250       0.000
   119         1.363       0.000         1.363       0.000
   120         1.432       0.000         1.432       0.000
   121         1.473       0.000         1.473       0.000
   122         1.514       0.000         1.514       0.000
   123         1.593       0.000         1.593       0.000
   124         1.775       0.000         1.775       0.000
(only showing first 3 out of 9 k-points)

No gap
No difference between direct/indirect transitions
vacuum-level: 1.174  # V

Forces: [  # eV/Ang
  [    0.0000,     0.0003,     0.0000],  # C  0
  [    0.0004,     0.0015,     0.0000],  # C  1
  [    0.0019,    -0.0018,     0.0000],  # C  2
  [    0.0000,     0.0016,     0.0000],  # C  3
  [   -0.0066,    -0.0038,     0.0000],  # C  4
  [    0.0005,     0.0003,     0.0000],  # C  5
  [   -0.0006,     0.0026,     0.0000],  # C  6
  [    0.0015,    -0.0008,     0.0000],  # C  7
  [    0.0001,     0.0000,     0.0000],  # C  8
  [    0.0015,    -0.0006,     0.0000],  # C  9
  [    0.0130,     0.0076,     0.0000],  # C  10
  [   -0.0064,    -0.0037,     0.0000],  # C  11
  [   -0.0019,    -0.0018,     0.0000],  # C  12
  [   -0.0099,    -0.0035,     0.0000],  # C  13
  [    0.0000,    -0.0014,     0.0000],  # C  14
  [   -0.0005,     0.0003,     0.0000],  # C  15
  [   -0.0012,     0.0007,     0.0000],  # C  16
  [    0.0000,    -0.0006,     0.0000],  # C  17
  [   -0.0025,    -0.0007,     0.0000],  # C  18
  [   -0.0080,    -0.0070,     0.0000],  # C  19
  [    0.0031,     0.0009,     0.0000],  # C  20
  [    0.0000,    -0.0023,     0.0000],  # C  21
  [    0.0023,     0.0024,     0.0000],  # C  22
  [   -0.0020,     0.0013,     0.0000],  # C  23
  [    0.0066,    -0.0038,     0.0000],  # C  24
  [   -0.0019,     0.0105,     0.0000],  # C  25
  [    0.0012,     0.0007,     0.0000],  # C  26
  [   -0.0015,    -0.0008,     0.0000],  # C  27
  [    0.0000,     0.0077,     0.0000],  # C  28
  [    0.0080,    -0.0070,     0.0000],  # C  29
  [   -0.0031,     0.0009,     0.0000],  # C  30
  [    0.0064,    -0.0037,     0.0000],  # C  31
  [    0.0000,     0.0001,     0.0000],  # N  32
  [    0.0020,     0.0013,     0.0000],  # C  33
  [   -0.0009,    -0.0030,     0.0000],  # C  34
  [    0.0000,     0.0076,     0.0000],  # C  35
  [    0.0006,     0.0026,     0.0000],  # C  36
  [   -0.0012,    -0.0010,     0.0000],  # C  37
  [    0.0025,    -0.0007,     0.0000],  # C  38
  [   -0.0015,    -0.0006,     0.0000],  # C  39
  [   -0.0130,     0.0076,     0.0000],  # C  40
  [   -0.0004,     0.0015,     0.0000],  # C  41
  [   -0.0023,     0.0024,     0.0000],  # C  42
  [    0.0099,    -0.0035,     0.0000],  # C  43
  [    0.0009,    -0.0030,     0.0000],  # C  44
  [    0.0019,     0.0105,     0.0000],  # C  45
  [   -0.0000,    -0.0148,     0.0000],  # C  46
  [    0.0012,    -0.0010,     0.0000],  # C  47
  [   -0.0001,     0.0000,     0.0000],  # C  48
  [    0.0000,    -0.0001,     0.0000]]  # C  49
