  ___ ___ ___ _ _ _
 |   |   |_  | | | |
 | | | | | . | | | |
 |__ |  _|___|_____| - 25.7.0
 |___|_|

User:   root@autodl-container-cb134f97cf-3ebc7372
Date:   Fri May 15 08:56:32 2026
Arch:   x86_64
Pid:    751134
CWD:    /root/autodl-tmp/2d-defect-dast
Python: 3.10.20
gpaw:   /root/miniconda3/envs/gpaw-env/lib/python3.10/site-packages/gpaw
_gpaw:  /root/miniconda3/envs/gpaw-env/lib/python3.10/site-packages/
        _gpaw.cpython-310-x86_64-linux-gnu.so
ase:    /root/miniconda3/envs/gpaw-env/lib/python3.10/site-packages/ase (version 3.28.0)
numpy:  /root/miniconda3/envs/gpaw-env/lib/python3.10/site-packages/numpy (version 2.2.6)
scipy:  /root/miniconda3/envs/gpaw-env/lib/python3.10/site-packages/scipy (version 1.15.2)
libxc:  7.0.0
units:  Angstrom and eV
cores: 1
OpenMP: False
OMP_NUM_THREADS: 1

input parameters:
  mode=PW(ecut=500.0),
  kpts=MonkhorstPack(size=array([3, 3, 1])),
  occupations=Occupations(name='fermi-dirac', width=0.05, fixmagmom=False),
  parallel={'gpu': True},
  spinpol=False,
  xc=XC(name='PBE')

environment variables:
  GPAW_CPUPY=False,
  GPAW_MPI4PY=False,
  GPAW_NEW=True,
  GPAW_NO_C_EXTENSION=False,
  GPAW_TRACE=False,
  GPAW_USE_GPUS=True

Diagonalizing LCAO Hamiltonian
Converting LCAO to grid
                                                                           
                                                                           
                                                                           
                                                                           
                   S      S       S       S       S                        
                     S       S       S      S       S                      
              Mo      Mo      Mo      Mo      Mo                           
                       S       S       S       S      S                    
                Mo S    MoS     MoS     MoS     MoS                        
                     S   S   S   S   S   S  S    S  S    S                 
                   Mo     Mo      Mo      Mo      Mo                       
                       S   S   S   S   S   S   S   S  S    S               
                     Mo      Mo     Mo      Mo      Mo                     
                       MoS     MoS     MoS     MoS    Mo S                 
                                                                           
                           S       S       S       S       S               
                                                                           
                                                                           
                                                                           
                                                                           

Atomic positions and initial magnetic moments

Positions:
   0 Mo     0.000000    0.000000   16.595000    ( 0.0000,  0.0000,  0.0000)
   1 S      1.590000    0.917987   18.190000    ( 0.0000,  0.0000,  0.0000)
   2 S      1.590000    0.917987   15.000000    ( 0.0000,  0.0000,  0.0000)
   3 Mo    -1.590000    2.753961   16.595000    ( 0.0000,  0.0000,  0.0000)
   4 S      0.000000    3.671948   18.190000    ( 0.0000,  0.0000,  0.0000)
   5 S      0.000000    3.671948   15.000000    ( 0.0000,  0.0000,  0.0000)
   6 Mo    -3.180000    5.507922   16.595000    ( 0.0000,  0.0000,  0.0000)
   7 S     -1.590000    6.425908   18.190000    ( 0.0000,  0.0000,  0.0000)
   8 S     -1.590000    6.425908   15.000000    ( 0.0000,  0.0000,  0.0000)
   9 Mo    -4.770000    8.261882   16.595000    ( 0.0000,  0.0000,  0.0000)
  10 S     -3.180000    9.179869   18.190000    ( 0.0000,  0.0000,  0.0000)
  11 S     -3.180000    9.179869   15.000000    ( 0.0000,  0.0000,  0.0000)
  12 Mo    -6.360000   11.015843   16.595000    ( 0.0000,  0.0000,  0.0000)
  13 S     -4.770000   11.933830   18.190000    ( 0.0000,  0.0000,  0.0000)
  14 S     -4.770000   11.933830   15.000000    ( 0.0000,  0.0000,  0.0000)
  15 Mo     3.180000    0.000000   16.595000    ( 0.0000,  0.0000,  0.0000)
  16 S      4.770000    0.917987   18.190000    ( 0.0000,  0.0000,  0.0000)
  17 S      4.770000    0.917987   15.000000    ( 0.0000,  0.0000,  0.0000)
  18 Mo     1.590000    2.753961   16.595000    ( 0.0000,  0.0000,  0.0000)
  19 S      3.180000    3.671948   18.190000    ( 0.0000,  0.0000,  0.0000)
  20 S      3.180000    3.671948   15.000000    ( 0.0000,  0.0000,  0.0000)
  21 Mo     0.000000    5.507922   16.595000    ( 0.0000,  0.0000,  0.0000)
  22 S      1.590000    6.425908   18.190000    ( 0.0000,  0.0000,  0.0000)
  23 S      1.590000    6.425908   15.000000    ( 0.0000,  0.0000,  0.0000)
  24 Mo    -1.590000    8.261882   16.595000    ( 0.0000,  0.0000,  0.0000)
  25 S      0.000000    9.179869   18.190000    ( 0.0000,  0.0000,  0.0000)
  26 S      0.000000    9.179869   15.000000    ( 0.0000,  0.0000,  0.0000)
  27 Mo    -3.180000   11.015843   16.595000    ( 0.0000,  0.0000,  0.0000)
  28 S     -1.590000   11.933830   18.190000    ( 0.0000,  0.0000,  0.0000)
  29 S     -1.590000   11.933830   15.000000    ( 0.0000,  0.0000,  0.0000)
  30 Mo     6.360000    0.000000   16.595000    ( 0.0000,  0.0000,  0.0000)
  31 S      7.950000    0.917987   18.190000    ( 0.0000,  0.0000,  0.0000)
  32 S      7.950000    0.917987   15.000000    ( 0.0000,  0.0000,  0.0000)
  33 Mo     4.770000    2.753961   16.595000    ( 0.0000,  0.0000,  0.0000)
  34 S      6.360000    3.671948   18.190000    ( 0.0000,  0.0000,  0.0000)
  35 S      6.360000    3.671948   15.000000    ( 0.0000,  0.0000,  0.0000)
  36 Mo     3.180000    5.507922   16.595000    ( 0.0000,  0.0000,  0.0000)
  37 S      4.770000    6.425908   18.190000    ( 0.0000,  0.0000,  0.0000)
  38 S      4.770000    6.425908   15.000000    ( 0.0000,  0.0000,  0.0000)
  39 Mo     1.590000    8.261882   16.595000    ( 0.0000,  0.0000,  0.0000)
  40 S      3.180000    9.179869   18.190000    ( 0.0000,  0.0000,  0.0000)
  41 S      3.180000    9.179869   15.000000    ( 0.0000,  0.0000,  0.0000)
  42 Mo     0.000000   11.015843   16.595000    ( 0.0000,  0.0000,  0.0000)
  43 S      1.590000   11.933830   18.190000    ( 0.0000,  0.0000,  0.0000)
  44 S      1.590000   11.933830   15.000000    ( 0.0000,  0.0000,  0.0000)
  45 Mo     9.540000    0.000000   16.595000    ( 0.0000,  0.0000,  0.0000)
  46 S     11.130000    0.917987   18.190000    ( 0.0000,  0.0000,  0.0000)
  47 S     11.130000    0.917987   15.000000    ( 0.0000,  0.0000,  0.0000)
  48 Mo     7.950000    2.753961   16.595000    ( 0.0000,  0.0000,  0.0000)
  49 S      9.540000    3.671948   18.190000    ( 0.0000,  0.0000,  0.0000)
  50 S      9.540000    3.671948   15.000000    ( 0.0000,  0.0000,  0.0000)
  51 Mo     6.360000    5.507922   16.595000    ( 0.0000,  0.0000,  0.0000)
  52 S      7.950000    6.425908   18.190000    ( 0.0000,  0.0000,  0.0000)
  53 S      7.950000    6.425908   15.000000    ( 0.0000,  0.0000,  0.0000)
  54 Mo     4.770000    8.261882   16.595000    ( 0.0000,  0.0000,  0.0000)
  55 S      6.360000    9.179869   18.190000    ( 0.0000,  0.0000,  0.0000)
  56 S      6.360000    9.179869   15.000000    ( 0.0000,  0.0000,  0.0000)
  57 Mo     3.180000   11.015843   16.595000    ( 0.0000,  0.0000,  0.0000)
  58 S      4.770000   11.933830   18.190000    ( 0.0000,  0.0000,  0.0000)
  59 S      4.770000   11.933830   15.000000    ( 0.0000,  0.0000,  0.0000)
  60 Mo    12.720000    0.000000   16.595000    ( 0.0000,  0.0000,  0.0000)
  61 S     14.310000    0.917987   18.190000    ( 0.0000,  0.0000,  0.0000)
  62 S     14.310000    0.917987   15.000000    ( 0.0000,  0.0000,  0.0000)
  63 Mo    11.130000    2.753961   16.595000    ( 0.0000,  0.0000,  0.0000)
  64 S     12.720000    3.671948   18.190000    ( 0.0000,  0.0000,  0.0000)
  65 S     12.720000    3.671948   15.000000    ( 0.0000,  0.0000,  0.0000)
  66 Mo     9.540000    5.507922   16.595000    ( 0.0000,  0.0000,  0.0000)
  67 S     11.130000    6.425908   18.190000    ( 0.0000,  0.0000,  0.0000)
  68 S     11.130000    6.425908   15.000000    ( 0.0000,  0.0000,  0.0000)
  69 Mo     7.950000    8.261882   16.595000    ( 0.0000,  0.0000,  0.0000)
  70 S      9.540000    9.179869   18.190000    ( 0.0000,  0.0000,  0.0000)
  71 S      9.540000    9.179869   15.000000    ( 0.0000,  0.0000,  0.0000)
  72 Mo     6.360000   11.015843   16.595000    ( 0.0000,  0.0000,  0.0000)
  73 S      7.950000   11.933830   18.190000    ( 0.0000,  0.0000,  0.0000)
  74 S      7.950000   11.933830   15.000000    ( 0.0000,  0.0000,  0.0000)

Unit cell:
           periodic     x           y           z      points  spacing
  1. axis:    yes   15.900000    0.000000    0.000000    84     0.1639
  2. axis:    yes   -7.950000   13.769804    0.000000    84     0.1639
  3. axis:    no     0.000000   -0.000000   33.190000   175     0.1897

  Lengths:  15.900000  15.900000  33.190000
  Angles:   90.000000  90.000000 120.000000

Effective grid spacing dv^(1/3) = 0.1805

symmetry:
  number of symmetries: 12
  rotations: [
    [[ 1,  1,  0], [ 0, -1,  0], [ 0,  0,  1]],
    [[ 1,  1,  0], [ 0, -1,  0], [ 0,  0, -1]],
    [[ 1,  0,  0], [ 0,  1,  0], [ 0,  0,  1]],
    [[ 1,  0,  0], [ 0,  1,  0], [ 0,  0, -1]],
    [[ 0,  1,  0], [-1, -1,  0], [ 0,  0,  1]],
    [[ 0,  1,  0], [-1, -1,  0], [ 0,  0, -1]],
    [[ 0, -1,  0], [-1,  0,  0], [ 0,  0,  1]],
    [[ 0, -1,  0], [-1,  0,  0], [ 0,  0, -1]],
    [[-1,  0,  0], [ 1,  1,  0], [ 0,  0,  1]],
    [[-1,  0,  0], [ 1,  1,  0], [ 0,  0, -1]],
    [[-1, -1,  0], [ 1,  0,  0], [ 0,  0,  1]],
    [[-1, -1,  0], [ 1,  0,  0], [ 0,  0, -1]]]

bz sampling:
  number of bz points: 9
  number of ibz points: 3
  monkhorst-pack size: [3, 3, 1]
  monkhorst-pack shift: [0, 0, 0]
  points and weights: [
    [[  0.00000000,   0.00000000,   0.00000000], 0.11111111],  # 0
    [[  0.33333333,   0.00000000,   0.00000000], 0.66666667],  # 1
    [[  0.33333333,   0.33333333,   0.00000000], 0.22222222]]  # 2

plane wave coefficients: 184509
cutoff: 500.0 eV

spin-components: 1  # (collinear spins)
bands: 394
spin-degeneracy: 2
dtype: complex128

memory:
    storage: GPU
    wave functions: 3_484_630_560  # bytes  (3_484_630_560 per core)

parallelization:
    kpt:    1
    domain: 1
    band:   1

density:
  valence electrons: 650.0
  components: 1
  grid points: [ 84  84 175]
  charge: 0.0  # |e|

potential:
  grid points: [ 84  84 175]

species:
  Mo:
    name: Molybdenum
    id: 296a29d4664fe6c6f68623909fe0870f
    Z: 42.0
    valence: 14
    core: 28
    charge: 0.0
    file: /root/miniconda3/envs/gpaw-env/lib/python3.10/site-packages/gpaw_data/setups/Mo.PBE.gz
    compensation charges: {type: gauss,
                           rc: 0.38,
                           lmax: 2}
    cutoffs: {filter: 2.16,
              core: 1.42}
    projectors:
      #              energy  rcut
      - 4s(2.00)   -64.307   1.238
      - 5s(1.00)    -4.084   1.238
      - 4p(6.00)   -38.491   1.296
      - 5p(0.00)    -1.044   1.296
      - 4d(5.00)    -3.754   1.296
      -  d          23.458   1.296
  
    # Using partial waves for Mo as LCAO basis

  S:
    name: Sulfur
    id: ca434db9faa07220b7a1d8cb6886b7a9
    Z: 16.0
    valence: 6
    core: 10
    charge: 0.0
    file: /root/miniconda3/envs/gpaw-env/lib/python3.10/site-packages/gpaw_data/setups/S.PBE.gz
    compensation charges: {type: gauss,
                           rc: 0.24,
                           lmax: 2}
    cutoffs: {filter: 1.77,
              core: 1.66}
    projectors:
      #              energy  rcut
      - 3s(2.00)   -17.254   0.974
      - 3p(4.00)    -7.008   0.979
      -  s           9.957   0.974
      -  p          20.203   0.979
      -  d           0.000   0.900
  
    # Using partial waves for S as LCAO basis

Reference energy: -3296232.810666  # eV

eigensolver:
  {'converge_bands': 'occupied', 'name': 'Davidson', 'niter': 2}
Density mixing:
  Method: separate
  Backend: pulay
  Linear mixing parameter: 0.05
  old densities: 5
  Damping of long wavelength oscillations: 50
occupation numbers:
  Fermi-Dirac:
    width: 0.0500  # eV
  

<gpaw.new.pw.paw_poisson.SlowPAWPoissonSolver object at 0x7f9818740430>
xc functional:
  name: PBE with 2 nearest neighbor stencil

convergence criteria:
- Maximum [total energy] change in last 3 cyles: 0.0005 eV / valence electron
- Maximum integral of absolute [dens]ity change: 0.0001 electrons / valence electron
- Maximum integral of absolute [eigenst]ate change: 4e-08 eV^2 / valence electron
maximum number of iterations: 333

     iter     time        total  log10-change:
                         energy   eigst   dens
iter:   1 08:56:59  -585.499551   +0.63
iter:   2 08:57:16  -578.460724   -0.20  -1.10
iter:   3 08:57:34  -559.135790   -0.43  -1.16
iter:   4 08:57:52  -555.706419   -0.90  -1.30
iter:   5 08:58:09  -558.187644   -0.87  -1.39
iter:   6 08:58:27  -566.345984   -0.48  -1.53
iter:   7 08:58:45  -559.446475   -1.34  -1.44
iter:   8 08:59:02  -552.786459   -0.96  -1.52
iter:   9 08:59:20  -552.482568   -2.33  -2.04
iter:  10 08:59:38  -552.421841   -2.89  -2.51
iter:  11 08:59:56  -552.392530c  -3.18  -2.71
iter:  12 09:00:13  -552.402829c  -3.90  -2.80
iter:  13 09:00:31  -552.393787c  -4.24  -2.86
iter:  14 09:00:49  -552.391252c  -3.71  -2.95
iter:  15 09:01:06  -552.388676c  -4.74  -3.05
iter:  16 09:01:24  -552.388542c  -4.80  -3.22
iter:  17 09:01:42  -552.388361c  -5.55  -3.27
iter:  18 09:01:59  -552.388543c  -5.30  -3.31
iter:  19 09:02:17  -552.388327c  -5.70  -3.45
iter:  20 09:02:35  -552.388198c  -6.18  -3.58
iter:  21 09:02:53  -552.388109c  -6.02  -3.61
iter:  22 09:03:10  -552.387988c  -6.13  -3.69
iter:  23 09:03:28  -552.387947c  -6.64  -3.79
iter:  24 09:03:46  -552.387894c  -5.87  -3.87
iter:  25 09:04:03  -552.387901c  -6.50  -4.22c
iter:  26 09:04:21  -552.387886c  -7.33  -4.32c
iter:  27 09:04:39  -552.387885c  -7.61c -4.48c
Converged in 27 steps
Energy contributions relative to reference atoms: (reference = -3296232.810666)

kinetic:        -142.453161
coulomb:         -41.430284
zero:             -3.116195
external:          0.000000
xc:             -365.388245
entropy:          -0.000000
spinorbit:         0.000000
----------------------------
Free energy:    -552.387885
Extrapolated:   -552.387885

dipole moment: [-60.845727, -308.590947, 0.000237]  # |e|*Ang


Fermi level: -2.575

kpt = [0.000, 0.000, 0.000], weight = 0.111:
  Band      eig [eV]   occ [0-2]
     0       -64.382       2.000
   ...
   317        -3.945       2.000
   318        -3.654       2.000
   319        -3.654       2.000
   320        -3.654       2.000
   321        -3.654       2.000
   322        -3.654       2.000
   323        -3.654       2.000
   324        -3.564       2.000
   325        -1.535       0.000
   326        -1.535       0.000
   327        -1.535       0.000
   328        -1.535       0.000
   329        -1.535       0.000
   330        -1.535       0.000
   331        -1.396       0.000
   332        -1.396       0.000
   ...
   393         0.014       0.000

kpt = [0.333, 0.000, 0.000], weight = 0.667:
  Band      eig [eV]   occ [0-2]
     0       -64.381       2.000
   ...
   317        -3.800       2.000
   318        -3.800       2.000
   319        -3.780       2.000
   320        -3.780       2.000
   321        -3.695       2.000
   322        -3.588       2.000
   323        -3.552       2.000
   324        -3.552       2.000
   325        -1.598       0.000
   326        -1.598       0.000
   327        -1.564       0.000
   328        -1.564       0.000
   329        -1.476       0.000
   330        -1.476       0.000
   331        -1.468       0.000
   332        -1.468       0.000
   ...
   393        -0.029       0.000

kpt = [0.333, 0.333, 0.000], weight = 0.222:
  Band      eig [eV]   occ [0-2]
     0       -64.378       2.000
   ...
   317        -3.901       2.000
   318        -3.780       2.000
   319        -3.780       2.000
   320        -3.780       2.000
   321        -3.653       2.000
   322        -3.653       2.000
   323        -3.653       2.000
   324        -3.428       2.000
   325        -1.707       0.000
   326        -1.514       0.000
   327        -1.514       0.000
   328        -1.514       0.000
   329        -1.455       0.000
   330        -1.455       0.000
   331        -1.455       0.000
   332        -1.455       0.000
   ...
   393        -0.030       0.000

Gap: 1.721 eV
Transition (v -> c):
  (s=0, k=2, n=324, [0.33, 0.33, 0.00]) -> (s=0, k=2, n=325, [0.33, 0.33, 0.00])
No difference between direct/indirect transitions
vacuum-level: 2.477  # V

Forces: [  # eV/Ang
  [    0.0000,     0.0000,     0.0000],  # Mo 0
  [   -0.0013,    -0.0008,    -0.5367],  # S  1
  [   -0.0013,    -0.0008,     0.5367],  # S  2
  [    0.0009,     0.0005,     0.0000],  # Mo 3
  [    0.0000,    -0.0009,    -0.5383],  # S  4
  [    0.0000,    -0.0009,     0.5383],  # S  5
  [    0.0007,     0.0003,     0.0000],  # Mo 6
  [   -0.0009,    -0.0005,    -0.5381],  # S  7
  [   -0.0009,    -0.0005,     0.5381],  # S  8
  [    0.0006,     0.0005,     0.0000],  # Mo 9
  [   -0.0008,    -0.0005,    -0.5381],  # S  10
  [   -0.0008,    -0.0005,     0.5381],  # S  11
  [    0.0009,     0.0006,     0.0000],  # Mo 12
  [   -0.0008,     0.0004,    -0.5383],  # S  13
  [   -0.0008,     0.0004,     0.5383],  # S  14
  [   -0.0001,    -0.0010,     0.0000],  # Mo 15
  [    0.0001,    -0.0007,    -0.5369],  # S  16
  [    0.0001,    -0.0007,     0.5369],  # S  17
  [   -0.0009,     0.0005,     0.0000],  # Mo 18
  [   -0.0005,     0.0004,    -0.5369],  # S  19
  [   -0.0005,     0.0004,     0.5369],  # S  20
  [    0.0000,    -0.0003,     0.0000],  # Mo 21
  [    0.0009,    -0.0005,    -0.5381],  # S  22
  [    0.0009,    -0.0005,     0.5381],  # S  23
  [   -0.0001,    -0.0000,     0.0000],  # Mo 24
  [    0.0000,     0.0000,    -0.5380],  # S  25
  [    0.0000,     0.0000,     0.5380],  # S  26
  [   -0.0003,     0.0002,     0.0000],  # Mo 27
  [    0.0000,     0.0010,    -0.5381],  # S  28
  [    0.0000,     0.0010,     0.5381],  # S  29
  [   -0.0001,    -0.0008,     0.0000],  # Mo 30
  [   -0.0000,    -0.0005,    -0.5370],  # S  31
  [    0.0000,    -0.0005,     0.5370],  # S  32
  [    0.0003,     0.0002,     0.0000],  # Mo 33
  [    0.0002,     0.0001,    -0.5376],  # S  34
  [    0.0002,     0.0001,     0.5376],  # S  35
  [   -0.0007,     0.0003,     0.0000],  # Mo 36
  [   -0.0005,     0.0003,    -0.5370],  # S  37
  [   -0.0005,     0.0003,     0.5370],  # S  38
  [    0.0001,    -0.0000,     0.0000],  # Mo 39
  [    0.0008,    -0.0005,    -0.5381],  # S  40
  [    0.0008,    -0.0005,     0.5381],  # S  41
  [   -0.0000,     0.0001,     0.0000],  # Mo 42
  [   -0.0000,     0.0010,    -0.5381],  # S  43
  [   -0.0000,     0.0010,     0.5381],  # S  44
  [    0.0001,    -0.0008,     0.0000],  # Mo 45
  [   -0.0001,    -0.0007,    -0.5369],  # S  46
  [   -0.0001,    -0.0007,     0.5369],  # S  47
  [   -0.0000,     0.0005,     0.0000],  # Mo 48
  [   -0.0002,     0.0001,    -0.5376],  # S  49
  [   -0.0002,     0.0001,     0.5376],  # S  50
  [    0.0004,    -0.0003,     0.0000],  # Mo 51
  [    0.0000,    -0.0002,    -0.5376],  # S  52
  [    0.0000,    -0.0002,     0.5376],  # S  53
  [   -0.0006,     0.0005,     0.0000],  # Mo 54
  [   -0.0006,     0.0002,    -0.5369],  # S  55
  [   -0.0006,     0.0002,     0.5369],  # S  56
  [    0.0003,     0.0002,     0.0000],  # Mo 57
  [    0.0008,     0.0004,    -0.5383],  # S  58
  [    0.0008,     0.0004,     0.5383],  # S  59
  [    0.0001,    -0.0010,     0.0000],  # Mo 60
  [    0.0013,    -0.0008,    -0.5367],  # S  61
  [    0.0013,    -0.0008,     0.5367],  # S  62
  [   -0.0003,     0.0002,     0.0000],  # Mo 63
  [    0.0005,     0.0004,    -0.5369],  # S  64
  [    0.0005,     0.0004,     0.5369],  # S  65
  [   -0.0004,    -0.0003,     0.0000],  # Mo 66
  [    0.0005,     0.0003,    -0.5370],  # S  67
  [    0.0005,     0.0003,     0.5370],  # S  68
  [    0.0000,    -0.0004,     0.0000],  # Mo 69
  [    0.0006,     0.0002,    -0.5369],  # S  70
  [    0.0006,     0.0002,     0.5369],  # S  71
  [   -0.0009,     0.0006,     0.0000],  # Mo 72
  [    0.0000,     0.0015,    -0.5367],  # S  73
  [    0.0000,     0.0015,     0.5367]]  # S  74
                                                                           
                                                                           
                                                                           
                                                                           
                   S      S       S       S       S                        
                     S       S       S      S       S                      
              Mo      Mo      Mo      Mo      Mo                           
                       S       S       S       S      S                    
                Mo S    MoS     MoS     MoS     MoS                        
                     S   S   S   S   S   S  S    S  S    S                 
                   Mo     Mo      Mo      Mo      Mo                       
                       S   S   S   S   S   S   S   S  S    S               
                     Mo      Mo     Mo      Mo      Mo                     
                       MoS     MoS     MoS     MoS    Mo S                 
                                                                           
                           S       S       S       S       S               
                                                                           
                                                                           
                                                                           
                                                                           

Atomic positions and initial magnetic moments

Positions:
   0 Mo     0.000000    0.000000   16.595000    ( 0.0000,  0.0000,  0.0000)
   1 S      1.589981    0.917976   18.182333    ( 0.0000,  0.0000,  0.0000)
   2 S      1.589981    0.917976   15.007667    ( 0.0000,  0.0000,  0.0000)
   3 Mo    -1.589987    2.753968   16.595000    ( 0.0000,  0.0000,  0.0000)
   4 S      0.000000    3.671935   18.182310    ( 0.0000,  0.0000,  0.0000)
   5 S      0.000000    3.671935   15.007690    ( 0.0000,  0.0000,  0.0000)
   6 Mo    -3.179990    5.507925   16.595000    ( 0.0000,  0.0000,  0.0000)
   7 S     -1.590012    6.425902   18.182312    ( 0.0000,  0.0000,  0.0000)
   8 S     -1.590012    6.425902   15.007688    ( 0.0000,  0.0000,  0.0000)
   9 Mo    -4.769992    8.261890   16.595000    ( 0.0000,  0.0000,  0.0000)
  10 S     -3.180012    9.179862   18.182312    ( 0.0000,  0.0000,  0.0000)
  11 S     -3.180012    9.179862   15.007688    ( 0.0000,  0.0000,  0.0000)
  12 Mo    -6.359987   11.015851   16.595000    ( 0.0000,  0.0000,  0.0000)
  13 S     -4.770011   11.933836   18.182310    ( 0.0000,  0.0000,  0.0000)
  14 S     -4.770011   11.933836   15.007690    ( 0.0000,  0.0000,  0.0000)
  15 Mo     3.179999   -0.000015   16.595000    ( 0.0000,  0.0000,  0.0000)
  16 S      4.770002    0.917977   18.182330    ( 0.0000,  0.0000,  0.0000)
  17 S      4.770002    0.917977   15.007670    ( 0.0000,  0.0000,  0.0000)
  18 Mo     1.589987    2.753968   16.595000    ( 0.0000,  0.0000,  0.0000)
  19 S      3.179992    3.671954   18.182330    ( 0.0000,  0.0000,  0.0000)
  20 S      3.179992    3.671954   15.007670    ( 0.0000,  0.0000,  0.0000)
  21 Mo     0.000000    5.507917   16.595000    ( 0.0000,  0.0000,  0.0000)
  22 S      1.590012    6.425902   18.182312    ( 0.0000,  0.0000,  0.0000)
  23 S      1.590012    6.425902   15.007688    ( 0.0000,  0.0000,  0.0000)
  24 Mo    -1.590001    8.261882   16.595000    ( 0.0000,  0.0000,  0.0000)
  25 S      0.000000    9.179869   18.182315    ( 0.0000,  0.0000,  0.0000)
  26 S      0.000000    9.179869   15.007685    ( 0.0000,  0.0000,  0.0000)
  27 Mo    -3.180004   11.015845   16.595000    ( 0.0000,  0.0000,  0.0000)
  28 S     -1.590000   11.933844   18.182312    ( 0.0000,  0.0000,  0.0000)
  29 S     -1.590000   11.933844   15.007688    ( 0.0000,  0.0000,  0.0000)
  30 Mo     6.359998   -0.000011   16.595000    ( 0.0000,  0.0000,  0.0000)
  31 S      7.950000    0.917979   18.182328    ( 0.0000,  0.0000,  0.0000)
  32 S      7.950000    0.917979   15.007672    ( 0.0000,  0.0000,  0.0000)
  33 Mo     4.770005    2.753963   16.595000    ( 0.0000,  0.0000,  0.0000)
  34 S      6.360002    3.671949   18.182319    ( 0.0000,  0.0000,  0.0000)
  35 S      6.360002    3.671949   15.007681    ( 0.0000,  0.0000,  0.0000)
  36 Mo     3.179990    5.507925   16.595000    ( 0.0000,  0.0000,  0.0000)
  37 S      4.769993    6.425912   18.182328    ( 0.0000,  0.0000,  0.0000)
  38 S      4.769993    6.425912   15.007672    ( 0.0000,  0.0000,  0.0000)
  39 Mo     1.590001    8.261882   16.595000    ( 0.0000,  0.0000,  0.0000)
  40 S      3.180012    9.179862   18.182312    ( 0.0000,  0.0000,  0.0000)
  41 S      3.180012    9.179862   15.007688    ( 0.0000,  0.0000,  0.0000)
  42 Mo    -0.000000   11.015844   16.595000    ( 0.0000,  0.0000,  0.0000)
  43 S      1.590000   11.933844   18.182312    ( 0.0000,  0.0000,  0.0000)
  44 S      1.590000   11.933844   15.007688    ( 0.0000,  0.0000,  0.0000)
  45 Mo     9.540002   -0.000011   16.595000    ( 0.0000,  0.0000,  0.0000)
  46 S     11.129998    0.917977   18.182330    ( 0.0000,  0.0000,  0.0000)
  47 S     11.129998    0.917977   15.007670    ( 0.0000,  0.0000,  0.0000)
  48 Mo     7.950000    2.753968   16.595000    ( 0.0000,  0.0000,  0.0000)
  49 S      9.539998    3.671949   18.182319    ( 0.0000,  0.0000,  0.0000)
  50 S      9.539998    3.671949   15.007681    ( 0.0000,  0.0000,  0.0000)
  51 Mo     6.360006    5.507918   16.595000    ( 0.0000,  0.0000,  0.0000)
  52 S      7.950000    6.425906   18.182319    ( 0.0000,  0.0000,  0.0000)
  53 S      7.950000    6.425906   15.007681    ( 0.0000,  0.0000,  0.0000)
  54 Mo     4.769992    8.261890   16.595000    ( 0.0000,  0.0000,  0.0000)
  55 S      6.359991    9.179873   18.182330    ( 0.0000,  0.0000,  0.0000)
  56 S      6.359991    9.179873   15.007670    ( 0.0000,  0.0000,  0.0000)
  57 Mo     3.180004   11.015845   16.595000    ( 0.0000,  0.0000,  0.0000)
  58 S      4.770011   11.933836   18.182310    ( 0.0000,  0.0000,  0.0000)
  59 S      4.770011   11.933836   15.007690    ( 0.0000,  0.0000,  0.0000)
  60 Mo    12.720001   -0.000015   16.595000    ( 0.0000,  0.0000,  0.0000)
  61 S     14.310019    0.917976   18.182333    ( 0.0000,  0.0000,  0.0000)
  62 S     14.310019    0.917976   15.007667    ( 0.0000,  0.0000,  0.0000)
  63 Mo    11.129995    2.753963   16.595000    ( 0.0000,  0.0000,  0.0000)
  64 S     12.720008    3.671954   18.182330    ( 0.0000,  0.0000,  0.0000)
  65 S     12.720008    3.671954   15.007670    ( 0.0000,  0.0000,  0.0000)
  66 Mo     9.539994    5.507918   16.595000    ( 0.0000,  0.0000,  0.0000)
  67 S     11.130007    6.425912   18.182328    ( 0.0000,  0.0000,  0.0000)
  68 S     11.130007    6.425912   15.007672    ( 0.0000,  0.0000,  0.0000)
  69 Mo     7.950000    8.261877   16.595000    ( 0.0000,  0.0000,  0.0000)
  70 S      9.540009    9.179873   18.182330    ( 0.0000,  0.0000,  0.0000)
  71 S      9.540009    9.179873   15.007670    ( 0.0000,  0.0000,  0.0000)
  72 Mo     6.359987   11.015851   16.595000    ( 0.0000,  0.0000,  0.0000)
  73 S      7.950000   11.933852   18.182333    ( 0.0000,  0.0000,  0.0000)
  74 S      7.950000   11.933852   15.007667    ( 0.0000,  0.0000,  0.0000)

Unit cell:
           periodic     x           y           z      points  spacing
  1. axis:    yes   15.900000    0.000000    0.000000    84     0.1639
  2. axis:    yes   -7.950000   13.769804    0.000000    84     0.1639
  3. axis:    no     0.000000   -0.000000   33.190000   175     0.1897

  Lengths:  15.900000  15.900000  33.190000
  Angles:   90.000000  90.000000 120.000000

Effective grid spacing dv^(1/3) = 0.1805

convergence criteria:
- Maximum [total energy] change in last 3 cyles: 0.0005 eV / valence electron
- Maximum integral of absolute [dens]ity change: 0.0001 electrons / valence electron
- Maximum integral of absolute [eigenst]ate change: 4e-08 eV^2 / valence electron
maximum number of iterations: 333

     iter     time        total  log10-change:
                         energy   eigst   dens
iter:   1 09:05:05  -552.751075   -2.69
iter:   2 09:05:22  -552.717017   -4.11  -2.61
iter:   3 09:05:40  -552.674244c  -4.10  -2.64
iter:   4 09:05:58  -552.676580c  -4.57  -2.76
iter:   5 09:06:15  -552.583164c  -3.54  -2.75
iter:   6 09:06:33  -552.586010c  -4.54  -3.35
iter:   7 09:06:51  -552.588476c  -5.52  -3.32
iter:   8 09:07:09  -552.588514c  -5.68  -3.35
iter:   9 09:07:26  -552.577364c  -5.80  -3.35
iter:  10 09:07:44  -552.571393c  -5.42  -3.50
iter:  11 09:08:02  -552.571527c  -6.47  -3.92
iter:  12 09:08:19  -552.571464c  -7.31  -3.91
iter:  13 09:08:37  -552.571113c  -6.82  -3.94
iter:  14 09:08:55  -552.570583c  -7.40c -4.06c
Converged in 14 steps
Energy contributions relative to reference atoms: (reference = -3296232.810666)

kinetic:        -122.213731
coulomb:         -57.260054
zero:             -3.237532
external:          0.000000
xc:             -369.859266
entropy:          -0.000000
spinorbit:         0.000000
----------------------------
Free energy:    -552.570583
Extrapolated:   -552.570583

dipole moment: [-299.258864, 103.627462, -0.738221]  # |e|*Ang


Fermi level: -2.526

kpt = [0.000, 0.000, 0.000], weight = 0.111:
  Band      eig [eV]   occ [0-2]
     0       -64.326       2.000
   ...
   317        -3.881       2.000
   318        -3.612       2.000
   319        -3.612       2.000
   320        -3.612       2.000
   321        -3.612       2.000
   322        -3.612       2.000
   323        -3.612       2.000
   324        -3.487       2.000
   325        -1.460       0.000
   326        -1.460       0.000
   327        -1.460       0.000
   328        -1.460       0.000
   329        -1.460       0.000
   330        -1.460       0.000
   331        -1.352       0.000
   332        -1.352       0.000
   ...
   393         0.082       0.000

kpt = [0.333, 0.000, 0.000], weight = 0.667:
  Band      eig [eV]   occ [0-2]
     0       -64.325       2.000
   ...
   317        -3.758       2.000
   318        -3.758       2.000
   319        -3.739       2.000
   320        -3.739       2.000
   321        -3.624       2.000
   322        -3.512       2.000
   323        -3.508       2.000
   324        -3.508       2.000
   325        -1.525       0.000
   326        -1.525       0.000
   327        -1.523       0.000
   328        -1.523       0.000
   329        -1.403       0.000
   330        -1.403       0.000
   331        -1.391       0.000
   332        -1.391       0.000
   ...
   393         0.021       0.000

kpt = [0.333, 0.333, 0.000], weight = 0.222:
  Band      eig [eV]   occ [0-2]
     0       -64.322       2.000
   ...
   317        -3.856       2.000
   318        -3.739       2.000
   319        -3.739       2.000
   320        -3.739       2.000
   321        -3.581       2.000
   322        -3.581       2.000
   323        -3.581       2.000
   324        -3.383       2.000
   325        -1.673       0.000
   326        -1.437       0.000
   327        -1.437       0.000
   328        -1.437       0.000
   329        -1.383       0.000
   330        -1.383       0.000
   331        -1.383       0.000
   332        -1.383       0.000
   ...
   393         0.047       0.000

Gap: 1.710 eV
Transition (v -> c):
  (s=0, k=2, n=324, [0.33, 0.33, 0.00]) -> (s=0, k=2, n=325, [0.33, 0.33, 0.00])
No difference between direct/indirect transitions
vacuum-level: 2.431  # V

Forces: [  # eV/Ang
  [   -0.0000,    -0.0000,     0.0000],  # Mo 0
  [    0.0005,     0.0003,    -0.4131],  # S  1
  [    0.0005,     0.0003,     0.4131],  # S  2
  [   -0.0005,    -0.0004,     0.0000],  # Mo 3
  [    0.0000,     0.0001,    -0.4129],  # S  4
  [    0.0000,     0.0001,     0.4129],  # S  5
  [   -0.0003,    -0.0003,     0.0000],  # Mo 6
  [    0.0005,    -0.0001,    -0.4129],  # S  7
  [    0.0005,    -0.0001,     0.4129],  # S  8
  [   -0.0004,    -0.0001,     0.0000],  # Mo 9
  [    0.0002,     0.0005,    -0.4129],  # S  10
  [    0.0002,     0.0005,     0.4129],  # S  11
  [   -0.0006,    -0.0002,     0.0000],  # Mo 12
  [    0.0001,    -0.0001,    -0.4129],  # S  13
  [    0.0001,    -0.0001,     0.4129],  # S  14
  [   -0.0001,     0.0006,     0.0000],  # Mo 15
  [   -0.0003,     0.0003,    -0.4133],  # S  16
  [   -0.0003,     0.0003,     0.4133],  # S  17
  [    0.0005,    -0.0004,     0.0000],  # Mo 18
  [    0.0001,    -0.0004,    -0.4133],  # S  19
  [    0.0001,    -0.0004,     0.4133],  # S  20
  [   -0.0000,    -0.0000,     0.0000],  # Mo 21
  [   -0.0005,    -0.0001,    -0.4129],  # S  22
  [   -0.0005,    -0.0001,     0.4129],  # S  23
  [    0.0001,     0.0000,     0.0000],  # Mo 24
  [   -0.0000,    -0.0000,    -0.4131],  # S  25
  [   -0.0000,    -0.0000,     0.4131],  # S  26
  [   -0.0000,     0.0000,     0.0000],  # Mo 27
  [   -0.0003,    -0.0004,    -0.4129],  # S  28
  [   -0.0003,    -0.0004,     0.4129],  # S  29
  [   -0.0001,     0.0004,     0.0000],  # Mo 30
  [    0.0000,     0.0004,    -0.4129],  # S  31
  [    0.0000,     0.0004,     0.4129],  # S  32
  [   -0.0003,    -0.0002,     0.0000],  # Mo 33
  [   -0.0001,    -0.0001,    -0.4131],  # S  34
  [   -0.0001,    -0.0001,     0.4131],  # S  35
  [    0.0003,    -0.0003,     0.0000],  # Mo 36
  [    0.0003,    -0.0002,    -0.4129],  # S  37
  [    0.0003,    -0.0002,     0.4129],  # S  38
  [   -0.0001,     0.0000,     0.0000],  # Mo 39
  [   -0.0002,     0.0005,    -0.4129],  # S  40
  [   -0.0002,     0.0005,     0.4129],  # S  41
  [   -0.0000,    -0.0001,     0.0000],  # Mo 42
  [    0.0003,    -0.0004,    -0.4129],  # S  43
  [    0.0003,    -0.0004,     0.4129],  # S  44
  [    0.0001,     0.0004,     0.0000],  # Mo 45
  [    0.0003,     0.0003,    -0.4133],  # S  46
  [    0.0003,     0.0003,     0.4133],  # S  47
  [   -0.0000,    -0.0003,     0.0000],  # Mo 48
  [    0.0001,    -0.0001,    -0.4131],  # S  49
  [    0.0001,    -0.0001,     0.4131],  # S  50
  [   -0.0003,     0.0001,     0.0000],  # Mo 51
  [   -0.0000,     0.0002,    -0.4131],  # S  52
  [   -0.0000,     0.0002,     0.4131],  # S  53
  [    0.0004,    -0.0001,     0.0000],  # Mo 54
  [    0.0004,     0.0002,    -0.4133],  # S  55
  [    0.0004,     0.0002,     0.4133],  # S  56
  [    0.0000,     0.0000,     0.0000],  # Mo 57
  [   -0.0001,    -0.0001,    -0.4129],  # S  58
  [   -0.0001,    -0.0001,     0.4129],  # S  59
  [    0.0001,     0.0006,     0.0000],  # Mo 60
  [   -0.0005,     0.0003,    -0.4131],  # S  61
  [   -0.0005,     0.0003,     0.4131],  # S  62
  [    0.0003,    -0.0002,     0.0000],  # Mo 63
  [   -0.0001,    -0.0004,    -0.4133],  # S  64
  [   -0.0001,    -0.0004,     0.4133],  # S  65
  [    0.0003,     0.0001,     0.0000],  # Mo 66
  [   -0.0003,    -0.0002,    -0.4129],  # S  67
  [   -0.0003,    -0.0002,     0.4129],  # S  68
  [   -0.0000,     0.0003,     0.0000],  # Mo 69
  [   -0.0004,     0.0002,    -0.4133],  # S  70
  [   -0.0004,     0.0002,     0.4133],  # S  71
  [    0.0006,    -0.0002,     0.0000],  # Mo 72
  [   -0.0000,    -0.0006,    -0.4131],  # S  73
  [    0.0000,    -0.0006,     0.4131]]  # S  74
                                                                           
                                                                           
                                                                           
                                                                           
                   S      S       S       S       S                        
                                                                           
              Mo     SMo     SMo     SMo    S Mo    S                      
                       S       S       S       S      S                    
                Mo S    MoS     MoS     MoS     MoS                        
                     S   S   S   S   S   S  S    S  S    S                 
                   Mo     Mo      Mo      Mo      Mo                       
                       S   S   S   S   S   S   S   S  S    S               
                     Mo      Mo     Mo      Mo      Mo                     
                       MoS     MoS     MoS     MoS    Mo S                 
                                                                           
                           S       S       S       S       S               
                                                                           
                                                                           
                                                                           
                                                                           

Atomic positions and initial magnetic moments

Positions:
   0 Mo    -0.000000   -0.000000   16.595000    ( 0.0000,  0.0000,  0.0000)
   1 S      1.590013    0.917995   18.156848    ( 0.0000,  0.0000,  0.0000)
   2 S      1.590013    0.917995   15.033152    ( 0.0000,  0.0000,  0.0000)
   3 Mo    -1.590015    2.753944   16.595000    ( 0.0000,  0.0000,  0.0000)
   4 S      0.000000    3.671944   18.156835    ( 0.0000,  0.0000,  0.0000)
   5 S      0.000000    3.671944   15.033165    ( 0.0000,  0.0000,  0.0000)
   6 Mo    -3.180010    5.507907   16.595000    ( 0.0000,  0.0000,  0.0000)
   7 S     -1.589982    6.425898   18.156840    ( 0.0000,  0.0000,  0.0000)
   8 S     -1.589982    6.425898   15.033160    ( 0.0000,  0.0000,  0.0000)
   9 Mo    -4.770018    8.261881   16.595000    ( 0.0000,  0.0000,  0.0000)
  10 S     -3.180000    9.179890   18.156840    ( 0.0000,  0.0000,  0.0000)
  11 S     -3.180000    9.179890   15.033160    ( 0.0000,  0.0000,  0.0000)
  12 Mo    -6.360022   11.015838   16.595000    ( 0.0000,  0.0000,  0.0000)
  13 S     -4.770003   11.933832   18.156835    ( 0.0000,  0.0000,  0.0000)
  14 S     -4.770003   11.933832   15.033165    ( 0.0000,  0.0000,  0.0000)
  15 Mo     3.179993    0.000022   16.595000    ( 0.0000,  0.0000,  0.0000)
  16 S      4.769980    0.917995   18.156833    ( 0.0000,  0.0000,  0.0000)
  17 S      4.769980    0.917995   15.033167    ( 0.0000,  0.0000,  0.0000)
  18 Mo     1.590015    2.753944   16.595000    ( 0.0000,  0.0000,  0.0000)
  19 S      3.179997    3.671927   18.156833    ( 0.0000,  0.0000,  0.0000)
  20 S      3.179997    3.671927   15.033167    ( 0.0000,  0.0000,  0.0000)
  21 Mo     0.000000    5.507917   16.595000    ( 0.0000,  0.0000,  0.0000)
  22 S      1.589982    6.425898   18.156840    ( 0.0000,  0.0000,  0.0000)
  23 S      1.589982    6.425898   15.033160    ( 0.0000,  0.0000,  0.0000)
  24 Mo    -1.589996    8.261884   16.595000    ( 0.0000,  0.0000,  0.0000)
  25 S     -0.000000    9.179869   18.156826    ( 0.0000,  0.0000,  0.0000)
  26 S      0.000000    9.179869   15.033174    ( 0.0000,  0.0000,  0.0000)
  27 Mo    -3.180004   11.015846   16.595000    ( 0.0000,  0.0000,  0.0000)
  28 S     -1.590018   11.933820   18.156840    ( 0.0000,  0.0000,  0.0000)
  29 S     -1.590018   11.933820   15.033160    ( 0.0000,  0.0000,  0.0000)
  30 Mo     6.359992    0.000016   16.595000    ( 0.0000,  0.0000,  0.0000)
  31 S      7.950000    0.918004   18.156852    ( 0.0000,  0.0000,  0.0000)
  32 S      7.950000    0.918004   15.033148    ( 0.0000,  0.0000,  0.0000)
  33 Mo     4.769987    2.753953   16.595000    ( 0.0000,  0.0000,  0.0000)
  34 S      6.359994    3.671944   18.156835    ( 0.0000,  0.0000,  0.0000)
  35 S      6.359994    3.671944   15.033165    ( 0.0000,  0.0000,  0.0000)
  36 Mo     3.180010    5.507907   16.595000    ( 0.0000,  0.0000,  0.0000)
  37 S      4.770014    6.425900   18.156852    ( 0.0000,  0.0000,  0.0000)
  38 S      4.770014    6.425900   15.033148    ( 0.0000,  0.0000,  0.0000)
  39 Mo     1.589996    8.261884   16.595000    ( 0.0000,  0.0000,  0.0000)
  40 S      3.180000    9.179890   18.156840    ( 0.0000,  0.0000,  0.0000)
  41 S      3.180000    9.179890   15.033160    ( 0.0000,  0.0000,  0.0000)
  42 Mo     0.000000   11.015839   16.595000    ( 0.0000,  0.0000,  0.0000)
  43 S      1.590018   11.933820   18.156840    ( 0.0000,  0.0000,  0.0000)
  44 S      1.590018   11.933820   15.033160    ( 0.0000,  0.0000,  0.0000)
  45 Mo     9.540008    0.000016   16.595000    ( 0.0000,  0.0000,  0.0000)
  46 S     11.130020    0.917995   18.156833    ( 0.0000,  0.0000,  0.0000)
  47 S     11.130020    0.917995   15.033167    ( 0.0000,  0.0000,  0.0000)
  48 Mo     7.950000    2.753950   16.595000    ( 0.0000,  0.0000,  0.0000)
  49 S      9.540006    3.671944   18.156835    ( 0.0000,  0.0000,  0.0000)
  50 S      9.540006    3.671944   15.033165    ( 0.0000,  0.0000,  0.0000)
  51 Mo     6.359991    5.507927   16.595000    ( 0.0000,  0.0000,  0.0000)
  52 S      7.950000    6.425915   18.156835    ( 0.0000,  0.0000,  0.0000)
  53 S      7.950000    6.425915   15.033165    ( 0.0000,  0.0000,  0.0000)
  54 Mo     4.770018    8.261881   16.595000    ( 0.0000,  0.0000,  0.0000)
  55 S      6.360017    9.179882   18.156833    ( 0.0000,  0.0000,  0.0000)
  56 S      6.360017    9.179882   15.033167    ( 0.0000,  0.0000,  0.0000)
  57 Mo     3.180004   11.015846   16.595000    ( 0.0000,  0.0000,  0.0000)
  58 S      4.770003   11.933832   18.156835    ( 0.0000,  0.0000,  0.0000)
  59 S      4.770003   11.933832   15.033165    ( 0.0000,  0.0000,  0.0000)
  60 Mo    12.720007    0.000022   16.595000    ( 0.0000,  0.0000,  0.0000)
  61 S     14.309987    0.917995   18.156848    ( 0.0000,  0.0000,  0.0000)
  62 S     14.309987    0.917995   15.033152    ( 0.0000,  0.0000,  0.0000)
  63 Mo    11.130013    2.753953   16.595000    ( 0.0000,  0.0000,  0.0000)
  64 S     12.720003    3.671927   18.156833    ( 0.0000,  0.0000,  0.0000)
  65 S     12.720003    3.671927   15.033167    ( 0.0000,  0.0000,  0.0000)
  66 Mo     9.540009    5.507927   16.595000    ( 0.0000,  0.0000,  0.0000)
  67 S     11.129986    6.425900   18.156852    ( 0.0000,  0.0000,  0.0000)
  68 S     11.129986    6.425900   15.033148    ( 0.0000,  0.0000,  0.0000)
  69 Mo     7.950000    8.261897   16.595000    ( 0.0000,  0.0000,  0.0000)
  70 S      9.539983    9.179882   18.156833    ( 0.0000,  0.0000,  0.0000)
  71 S      9.539983    9.179882   15.033167    ( 0.0000,  0.0000,  0.0000)
  72 Mo     6.360022   11.015838   16.595000    ( 0.0000,  0.0000,  0.0000)
  73 S      7.950000   11.933815   18.156848    ( 0.0000,  0.0000,  0.0000)
  74 S      7.950000   11.933815   15.033152    ( 0.0000,  0.0000,  0.0000)

Unit cell:
           periodic     x           y           z      points  spacing
  1. axis:    yes   15.900000    0.000000    0.000000    84     0.1639
  2. axis:    yes   -7.950000   13.769804    0.000000    84     0.1639
  3. axis:    no     0.000000   -0.000000   33.190000   175     0.1897

  Lengths:  15.900000  15.900000  33.190000
  Angles:   90.000000  90.000000 120.000000

Effective grid spacing dv^(1/3) = 0.1805

convergence criteria:
- Maximum [total energy] change in last 3 cyles: 0.0005 eV / valence electron
- Maximum integral of absolute [dens]ity change: 0.0001 electrons / valence electron
- Maximum integral of absolute [eigenst]ate change: 4e-08 eV^2 / valence electron
maximum number of iterations: 333

     iter     time        total  log10-change:
                         energy   eigst   dens
iter:   1 09:09:20  -554.712117   -1.65
iter:   2 09:09:38  -554.364582   -3.05  -2.10
iter:   3 09:09:56  -553.894526   -3.03  -2.14
iter:   4 09:10:13  -553.944590   -3.51  -2.26
iter:   5 09:10:31  -552.946005   -2.53  -2.23
iter:   6 09:10:49  -552.971088   -3.48  -2.85
iter:   7 09:11:07  -552.997451c  -4.48  -2.80
iter:   8 09:11:24  -553.003325c  -4.47  -2.83
iter:   9 09:11:42  -552.886869c  -4.90  -2.85
iter:  10 09:12:00  -552.817766c  -4.38  -3.01
iter:  11 09:12:17  -552.818877c  -5.40  -3.40
iter:  12 09:12:35  -552.819428c  -5.44  -3.39
iter:  13 09:12:53  -552.806003c  -5.64  -3.46
iter:  14 09:13:11  -552.800878c  -5.45  -3.71
iter:  15 09:13:28  -552.800112c  -6.56  -3.77
iter:  16 09:13:46  -552.800098c  -6.40  -3.85
iter:  17 09:14:04  -552.798706c  -6.37  -3.97
iter:  18 09:14:21  -552.798079c  -6.69  -4.08c
iter:  19 09:14:39  -552.797869c  -6.75  -4.30c
iter:  20 09:14:57  -552.797843c  -6.87  -4.37c
iter:  21 09:15:14  -552.797839c  -7.83c -4.53c
Converged in 21 steps
Energy contributions relative to reference atoms: (reference = -3296232.810666)

kinetic:         -49.686785
coulomb:        -115.687417
zero:             -3.525951
external:          0.000000
xc:             -383.897687
entropy:          -0.000000
spinorbit:         0.000000
----------------------------
Free energy:    -552.797839
Extrapolated:   -552.797839

dipole moment: [414.817420, -308.222388, 0.002088]  # |e|*Ang


Fermi level: -2.615

kpt = [0.000, 0.000, 0.000], weight = 0.111:
  Band      eig [eV]   occ [0-2]
     0       -64.388       2.000
   ...
   317        -3.913       2.000
   318        -3.722       2.000
   319        -3.722       2.000
   320        -3.722       2.000
   321        -3.722       2.000
   322        -3.722       2.000
   323        -3.722       2.000
   324        -3.472       2.000
   325        -1.459       0.000
   326        -1.459       0.000
   327        -1.459       0.000
   328        -1.459       0.000
   329        -1.459       0.000
   330        -1.459       0.000
   331        -1.455       0.000
   332        -1.455       0.000
   ...
   393         0.060       0.000

kpt = [0.333, 0.000, 0.000], weight = 0.667:
  Band      eig [eV]   occ [0-2]
     0       -64.386       2.000
   ...
   317        -3.853       2.000
   318        -3.853       2.000
   319        -3.791       2.000
   320        -3.791       2.000
   321        -3.631       2.000
   322        -3.616       2.000
   323        -3.616       2.000
   324        -3.503       2.000
   325        -1.647       0.000
   326        -1.647       0.000
   327        -1.519       0.000
   328        -1.519       0.000
   329        -1.409       0.000
   330        -1.409       0.000
   331        -1.381       0.000
   332        -1.381       0.000
   ...
   393        -0.009       0.000

kpt = [0.333, 0.333, 0.000], weight = 0.222:
  Band      eig [eV]   occ [0-2]
     0       -64.383       2.000
   ...
   317        -3.956       2.000
   318        -3.855       2.000
   319        -3.855       2.000
   320        -3.855       2.000
   321        -3.582       2.000
   322        -3.582       2.000
   323        -3.582       2.000
   324        -3.484       2.000
   325        -1.813       0.000
   326        -1.425       0.000
   327        -1.425       0.000
   328        -1.425       0.000
   329        -1.407       0.000
   330        -1.407       0.000
   331        -1.407       0.000
   332        -1.391       0.000
   ...
   393         0.053       0.000

Gap: 1.659 eV
Transition (v -> c):
  (s=0, k=0, n=324, [0.00, 0.00, 0.00]) -> (s=0, k=2, n=325, [0.33, 0.33, 0.00])
Direct/indirect transitions are different
Direct gap: 1.671 eV
Transition at: (s=0, k=2, n=324, [0.33, 0.33, 0.00])
vacuum-level: 2.480  # V

Forces: [  # eV/Ang
  [   -0.0000,    -0.0000,     0.0000],  # Mo 0
  [   -0.0003,    -0.0001,     0.0591],  # S  1
  [   -0.0003,    -0.0001,    -0.0591],  # S  2
  [    0.0008,     0.0005,     0.0000],  # Mo 3
  [   -0.0000,     0.0003,     0.0589],  # S  4
  [   -0.0000,     0.0003,    -0.0589],  # S  5
  [    0.0001,     0.0005,     0.0000],  # Mo 6
  [   -0.0006,     0.0003,     0.0591],  # S  7
  [   -0.0006,     0.0003,    -0.0591],  # S  8
  [    0.0005,    -0.0002,     0.0000],  # Mo 9
  [   -0.0001,    -0.0007,     0.0591],  # S  10
  [   -0.0001,    -0.0007,    -0.0591],  # S  11
  [    0.0008,     0.0004,     0.0000],  # Mo 12
  [    0.0002,    -0.0001,     0.0589],  # S  13
  [    0.0002,    -0.0001,    -0.0589],  # S  14
  [    0.0000,    -0.0009,     0.0000],  # Mo 15
  [    0.0008,    -0.0001,     0.0594],  # S  16
  [    0.0008,    -0.0001,    -0.0594],  # S  17
  [   -0.0008,     0.0005,     0.0000],  # Mo 18
  [    0.0003,     0.0008,     0.0594],  # S  19
  [    0.0003,     0.0008,    -0.0594],  # S  20
  [   -0.0000,    -0.0003,     0.0000],  # Mo 21
  [    0.0006,     0.0003,     0.0591],  # S  22
  [    0.0006,     0.0003,    -0.0591],  # S  23
  [   -0.0006,    -0.0003,     0.0000],  # Mo 24
  [   -0.0000,    -0.0000,     0.0596],  # S  25
  [    0.0000,     0.0000,    -0.0596],  # S  26
  [   -0.0002,     0.0001,     0.0000],  # Mo 27
  [    0.0005,     0.0004,     0.0591],  # S  28
  [    0.0005,     0.0004,    -0.0591],  # S  29
  [    0.0004,    -0.0003,     0.0000],  # Mo 30
  [   -0.0000,    -0.0003,     0.0589],  # S  31
  [   -0.0000,    -0.0003,    -0.0589],  # S  32
  [    0.0005,     0.0003,     0.0000],  # Mo 33
  [    0.0001,     0.0001,     0.0592],  # S  34
  [    0.0001,     0.0001,    -0.0592],  # S  35
  [   -0.0001,     0.0005,     0.0000],  # Mo 36
  [   -0.0003,     0.0002,     0.0589],  # S  37
  [   -0.0003,     0.0002,    -0.0589],  # S  38
  [    0.0006,    -0.0003,     0.0000],  # Mo 39
  [    0.0001,    -0.0007,     0.0591],  # S  40
  [    0.0001,    -0.0007,    -0.0591],  # S  41
  [    0.0000,     0.0007,     0.0000],  # Mo 42
  [   -0.0005,     0.0004,     0.0591],  # S  43
  [   -0.0005,     0.0004,    -0.0591],  # S  44
  [   -0.0004,    -0.0003,     0.0000],  # Mo 45
  [   -0.0008,    -0.0001,     0.0594],  # S  46
  [   -0.0008,    -0.0001,    -0.0594],  # S  47
  [    0.0000,     0.0001,     0.0000],  # Mo 48
  [   -0.0001,     0.0001,     0.0592],  # S  49
  [   -0.0001,     0.0001,    -0.0592],  # S  50
  [    0.0001,    -0.0001,     0.0000],  # Mo 51
  [    0.0000,    -0.0001,     0.0592],  # S  52
  [   -0.0000,    -0.0001,    -0.0592],  # S  53
  [   -0.0005,    -0.0002,     0.0000],  # Mo 54
  [   -0.0005,    -0.0006,     0.0594],  # S  55
  [   -0.0005,    -0.0006,    -0.0594],  # S  56
  [    0.0002,     0.0001,     0.0000],  # Mo 57
  [   -0.0002,    -0.0001,     0.0589],  # S  58
  [   -0.0002,    -0.0001,    -0.0589],  # S  59
  [   -0.0000,    -0.0009,     0.0000],  # Mo 60
  [    0.0003,    -0.0001,     0.0591],  # S  61
  [    0.0003,    -0.0001,    -0.0591],  # S  62
  [   -0.0005,     0.0003,     0.0000],  # Mo 63
  [   -0.0003,     0.0008,     0.0594],  # S  64
  [   -0.0003,     0.0008,    -0.0594],  # S  65
  [   -0.0001,    -0.0001,     0.0000],  # Mo 66
  [    0.0003,     0.0002,     0.0589],  # S  67
  [    0.0003,     0.0002,    -0.0589],  # S  68
  [   -0.0000,    -0.0006,     0.0000],  # Mo 69
  [    0.0005,    -0.0006,     0.0594],  # S  70
  [    0.0005,    -0.0006,    -0.0594],  # S  71
  [   -0.0008,     0.0004,     0.0000],  # Mo 72
  [   -0.0000,     0.0003,     0.0591],  # S  73
  [   -0.0000,     0.0003,    -0.0591]]  # S  74
                                                                           
                                                                           
                                                                           
                                                                           
                   S      S       S       S       S                        
                                                                           
              Mo     SMo     SMo     SMo    S Mo    S                      
                       S       S       S       S      S                    
                Mo S    MoS     MoS     MoS     MoS                        
                     S   S   S   S   S   S  S    S  S    S                 
                   Mo     Mo      Mo      Mo      Mo                       
                       S   S   S   S   S   S   S   S  S    S               
                     Mo      Mo     Mo      Mo      Mo                     
                       MoS     MoS     MoS     MoS    Mo S                 
                                                                           
                           S       S       S       S       S               
                                                                           
                                                                           
                                                                           
                                                                           

Atomic positions and initial magnetic moments

Positions:
   0 Mo    -0.000000   -0.000000   16.595000    ( 0.0000,  0.0000,  0.0000)
   1 S      1.590007    0.917991   18.160041    ( 0.0000,  0.0000,  0.0000)
   2 S      1.590007    0.917991   15.029959    ( 0.0000,  0.0000,  0.0000)
   3 Mo    -1.590003    2.753952   16.595000    ( 0.0000,  0.0000,  0.0000)
   4 S      0.000000    3.671947   18.160024    ( 0.0000,  0.0000,  0.0000)
   5 S      0.000000    3.671947   15.029976    ( 0.0000,  0.0000,  0.0000)
   6 Mo    -3.180008    5.507915   16.595000    ( 0.0000,  0.0000,  0.0000)
   7 S     -1.589992    6.425902   18.160030    ( 0.0000,  0.0000,  0.0000)
   8 S     -1.589992    6.425902   15.029970    ( 0.0000,  0.0000,  0.0000)
   9 Mo    -4.770009    8.261879   16.595000    ( 0.0000,  0.0000,  0.0000)
  10 S     -3.180002    9.179879   18.160030    ( 0.0000,  0.0000,  0.0000)
  11 S     -3.180002    9.179879   15.029970    ( 0.0000,  0.0000,  0.0000)
  12 Mo    -6.360009   11.015845   16.595000    ( 0.0000,  0.0000,  0.0000)
  13 S     -4.770001   11.933831   18.160024    ( 0.0000,  0.0000,  0.0000)
  14 S     -4.770001   11.933831   15.029976    ( 0.0000,  0.0000,  0.0000)
  15 Mo     3.179994    0.000007   16.595000    ( 0.0000,  0.0000,  0.0000)
  16 S      4.769993    0.917991   18.160030    ( 0.0000,  0.0000,  0.0000)
  17 S      4.769993    0.917991   15.029970    ( 0.0000,  0.0000,  0.0000)
  18 Mo     1.590003    2.753952   16.595000    ( 0.0000,  0.0000,  0.0000)
  19 S      3.180000    3.671939   18.160030    ( 0.0000,  0.0000,  0.0000)
  20 S      3.180000    3.671939   15.029970    ( 0.0000,  0.0000,  0.0000)
  21 Mo     0.000000    5.507914   16.595000    ( 0.0000,  0.0000,  0.0000)
  22 S      1.589992    6.425902   18.160030    ( 0.0000,  0.0000,  0.0000)
  23 S      1.589992    6.425902   15.029970    ( 0.0000,  0.0000,  0.0000)
  24 Mo    -1.590004    8.261880   16.595000    ( 0.0000,  0.0000,  0.0000)
  25 S     -0.000000    9.179869   18.160025    ( 0.0000,  0.0000,  0.0000)
  26 S      0.000000    9.179869   15.029975    ( 0.0000,  0.0000,  0.0000)
  27 Mo    -3.180007   11.015847   16.595000    ( 0.0000,  0.0000,  0.0000)
  28 S     -1.590009   11.933827   18.160030    ( 0.0000,  0.0000,  0.0000)
  29 S     -1.590009   11.933827   15.029970    ( 0.0000,  0.0000,  0.0000)
  30 Mo     6.359998    0.000010   16.595000    ( 0.0000,  0.0000,  0.0000)
  31 S      7.950000    0.917997   18.160040    ( 0.0000,  0.0000,  0.0000)
  32 S      7.950000    0.917997   15.029960    ( 0.0000,  0.0000,  0.0000)
  33 Mo     4.769996    2.753958   16.595000    ( 0.0000,  0.0000,  0.0000)
  34 S      6.359996    3.671946   18.160029    ( 0.0000,  0.0000,  0.0000)
  35 S      6.359996    3.671946   15.029971    ( 0.0000,  0.0000,  0.0000)
  36 Mo     3.180008    5.507915   16.595000    ( 0.0000,  0.0000,  0.0000)
  37 S      4.770009    6.425903   18.160040    ( 0.0000,  0.0000,  0.0000)
  38 S      4.770009    6.425903   15.029960    ( 0.0000,  0.0000,  0.0000)
  39 Mo     1.590004    8.261880   16.595000    ( 0.0000,  0.0000,  0.0000)
  40 S      3.180002    9.179879   18.160030    ( 0.0000,  0.0000,  0.0000)
  41 S      3.180002    9.179879   15.029970    ( 0.0000,  0.0000,  0.0000)
  42 Mo     0.000000   11.015848   16.595000    ( 0.0000,  0.0000,  0.0000)
  43 S      1.590009   11.933827   18.160030    ( 0.0000,  0.0000,  0.0000)
  44 S      1.590009   11.933827   15.029970    ( 0.0000,  0.0000,  0.0000)
  45 Mo     9.540002    0.000010   16.595000    ( 0.0000,  0.0000,  0.0000)
  46 S     11.130007    0.917991   18.160030    ( 0.0000,  0.0000,  0.0000)
  47 S     11.130007    0.917991   15.029970    ( 0.0000,  0.0000,  0.0000)
  48 Mo     7.950000    2.753954   16.595000    ( 0.0000,  0.0000,  0.0000)
  49 S      9.540004    3.671946   18.160029    ( 0.0000,  0.0000,  0.0000)
  50 S      9.540004    3.671946   15.029971    ( 0.0000,  0.0000,  0.0000)
  51 Mo     6.359994    5.507925   16.595000    ( 0.0000,  0.0000,  0.0000)
  52 S      7.950000    6.425913   18.160029    ( 0.0000,  0.0000,  0.0000)
  53 S      7.950000    6.425913   15.029971    ( 0.0000,  0.0000,  0.0000)
  54 Mo     4.770009    8.261879   16.595000    ( 0.0000,  0.0000,  0.0000)
  55 S      6.360007    9.179874   18.160030    ( 0.0000,  0.0000,  0.0000)
  56 S      6.360007    9.179874   15.029970    ( 0.0000,  0.0000,  0.0000)
  57 Mo     3.180007   11.015847   16.595000    ( 0.0000,  0.0000,  0.0000)
  58 S      4.770001   11.933831   18.160024    ( 0.0000,  0.0000,  0.0000)
  59 S      4.770001   11.933831   15.029976    ( 0.0000,  0.0000,  0.0000)
  60 Mo    12.720006    0.000007   16.595000    ( 0.0000,  0.0000,  0.0000)
  61 S     14.309993    0.917991   18.160041    ( 0.0000,  0.0000,  0.0000)
  62 S     14.309993    0.917991   15.029959    ( 0.0000,  0.0000,  0.0000)
  63 Mo    11.130004    2.753958   16.595000    ( 0.0000,  0.0000,  0.0000)
  64 S     12.720000    3.671939   18.160030    ( 0.0000,  0.0000,  0.0000)
  65 S     12.720000    3.671939   15.029970    ( 0.0000,  0.0000,  0.0000)
  66 Mo     9.540006    5.507925   16.595000    ( 0.0000,  0.0000,  0.0000)
  67 S     11.129991    6.425903   18.160040    ( 0.0000,  0.0000,  0.0000)
  68 S     11.129991    6.425903   15.029960    ( 0.0000,  0.0000,  0.0000)
  69 Mo     7.950000    8.261887   16.595000    ( 0.0000,  0.0000,  0.0000)
  70 S      9.539993    9.179874   18.160030    ( 0.0000,  0.0000,  0.0000)
  71 S      9.539993    9.179874   15.029970    ( 0.0000,  0.0000,  0.0000)
  72 Mo     6.360009   11.015845   16.595000    ( 0.0000,  0.0000,  0.0000)
  73 S      7.950000   11.933822   18.160041    ( 0.0000,  0.0000,  0.0000)
  74 S      7.950000   11.933822   15.029959    ( 0.0000,  0.0000,  0.0000)

Unit cell:
           periodic     x           y           z      points  spacing
  1. axis:    yes   15.900000    0.000000    0.000000    84     0.1639
  2. axis:    yes   -7.950000   13.769804    0.000000    84     0.1639
  3. axis:    no     0.000000   -0.000000   33.190000   175     0.1897

  Lengths:  15.900000  15.900000  33.190000
  Angles:   90.000000  90.000000 120.000000

Effective grid spacing dv^(1/3) = 0.1805

convergence criteria:
- Maximum [total energy] change in last 3 cyles: 0.0005 eV / valence electron
- Maximum integral of absolute [dens]ity change: 0.0001 electrons / valence electron
- Maximum integral of absolute [eigenst]ate change: 4e-08 eV^2 / valence electron
maximum number of iterations: 333

     iter     time        total  log10-change:
                         energy   eigst   dens
iter:   1 09:15:40  -552.831358c  -3.46
iter:   2 09:15:58  -552.825872c  -4.86  -3.00
iter:   3 09:16:16  -552.818448c  -4.82  -3.04
iter:   4 09:16:33  -552.819270c  -5.32  -3.16
iter:   5 09:16:51  -552.803701c  -4.31  -3.14
iter:   6 09:17:09  -552.804159c  -5.33  -3.73
iter:   7 09:17:26  -552.804617c  -6.29  -3.70
iter:   8 09:17:44  -552.804402c  -6.90  -3.72
iter:   9 09:18:02  -552.803611c  -6.75  -3.73
iter:  10 09:18:19  -552.802153c  -5.92  -3.79
iter:  11 09:18:37  -552.802217c  -7.11  -4.22c
iter:  12 09:18:55  -552.802082c  -7.65c -4.22c
Converged in 12 steps
Energy contributions relative to reference atoms: (reference = -3296232.810666)

kinetic:         -59.817532
coulomb:        -107.597696
zero:             -3.519626
external:          0.000000
xc:             -381.867229
entropy:          -0.000000
spinorbit:         0.000000
----------------------------
Free energy:    -552.802082
Extrapolated:   -552.802082

dipole moment: [415.000445, -308.058219, 0.494595]  # |e|*Ang


Fermi level: -2.650

kpt = [0.000, 0.000, 0.000], weight = 0.111:
  Band      eig [eV]   occ [0-2]
     0       -64.426       2.000
   ...
   317        -3.954       2.000
   318        -3.753       2.000
   319        -3.753       2.000
   320        -3.753       2.000
   321        -3.753       2.000
   322        -3.753       2.000
   323        -3.753       2.000
   324        -3.518       2.000
   325        -1.500       0.000
   326        -1.500       0.000
   327        -1.500       0.000
   328        -1.500       0.000
   329        -1.500       0.000
   330        -1.500       0.000
   331        -1.491       0.000
   332        -1.491       0.000
   ...
   393         0.018       0.000

kpt = [0.333, 0.000, 0.000], weight = 0.667:
  Band      eig [eV]   occ [0-2]
     0       -64.424       2.000
   ...
   317        -3.884       2.000
   318        -3.884       2.000
   319        -3.833       2.000
   320        -3.833       2.000
   321        -3.675       2.000
   322        -3.647       2.000
   323        -3.647       2.000
   324        -3.548       2.000
   325        -1.676       0.000
   326        -1.676       0.000
   327        -1.564       0.000
   328        -1.564       0.000
   329        -1.453       0.000
   330        -1.453       0.000
   331        -1.426       0.000
   332        -1.426       0.000
   ...
   393        -0.062       0.000

kpt = [0.333, 0.333, 0.000], weight = 0.222:
  Band      eig [eV]   occ [0-2]
     0       -64.421       2.000
   ...
   317        -3.989       2.000
   318        -3.885       2.000
   319        -3.885       2.000
   320        -3.885       2.000
   321        -3.627       2.000
   322        -3.627       2.000
   323        -3.627       2.000
   324        -3.516       2.000
   325        -1.840       0.000
   326        -1.471       0.000
   327        -1.471       0.000
   328        -1.471       0.000
   329        -1.441       0.000
   330        -1.441       0.000
   331        -1.441       0.000
   332        -1.435       0.000
   ...
   393         0.008       0.000

Gap: 1.676 eV
Transition (v -> c):
  (s=0, k=2, n=324, [0.33, 0.33, 0.00]) -> (s=0, k=2, n=325, [0.33, 0.33, 0.00])
No difference between direct/indirect transitions
vacuum-level: 2.511  # V

Forces: [  # eV/Ang
  [   -0.0000,     0.0000,     0.0000],  # Mo 0
  [   -0.0007,    -0.0004,    -0.0083],  # S  1
  [   -0.0007,    -0.0004,     0.0083],  # S  2
  [    0.0002,    -0.0001,     0.0000],  # Mo 3
  [   -0.0000,    -0.0011,    -0.0076],  # S  4
  [   -0.0000,    -0.0011,     0.0076],  # S  5
  [    0.0002,    -0.0000,     0.0000],  # Mo 6
  [   -0.0003,    -0.0005,    -0.0064],  # S  7
  [   -0.0003,    -0.0005,     0.0064],  # S  8
  [    0.0001,     0.0002,     0.0000],  # Mo 9
  [   -0.0005,     0.0000,    -0.0064],  # S  10
  [   -0.0005,     0.0000,     0.0064],  # S  11
  [   -0.0000,     0.0002,     0.0000],  # Mo 12
  [   -0.0009,     0.0005,    -0.0076],  # S  13
  [   -0.0009,     0.0005,     0.0076],  # S  14
  [   -0.0002,    -0.0001,     0.0000],  # Mo 15
  [   -0.0007,     0.0000,    -0.0070],  # S  16
  [   -0.0007,     0.0000,     0.0070],  # S  17
  [   -0.0002,    -0.0001,     0.0000],  # Mo 18
  [   -0.0003,    -0.0006,    -0.0070],  # S  19
  [   -0.0003,    -0.0006,     0.0070],  # S  20
  [   -0.0000,    -0.0001,     0.0000],  # Mo 21
  [    0.0003,    -0.0005,    -0.0064],  # S  22
  [    0.0003,    -0.0005,     0.0064],  # S  23
  [    0.0000,     0.0000,     0.0000],  # Mo 24
  [   -0.0000,     0.0000,    -0.0058],  # S  25
  [   -0.0000,     0.0000,     0.0058],  # S  26
  [   -0.0001,     0.0001,     0.0000],  # Mo 27
  [   -0.0003,     0.0005,    -0.0064],  # S  28
  [   -0.0003,     0.0005,     0.0064],  # S  29
  [   -0.0002,    -0.0002,     0.0000],  # Mo 30
  [    0.0000,     0.0000,    -0.0069],  # S  31
  [    0.0000,     0.0000,     0.0069],  # S  32
  [   -0.0001,    -0.0001,     0.0000],  # Mo 33
  [   -0.0002,    -0.0001,    -0.0069],  # S  34
  [   -0.0002,    -0.0001,     0.0069],  # S  35
  [   -0.0002,    -0.0000,     0.0000],  # Mo 36
  [    0.0000,    -0.0000,    -0.0069],  # S  37
  [    0.0000,    -0.0000,     0.0069],  # S  38
  [   -0.0000,     0.0000,     0.0000],  # Mo 39
  [    0.0005,     0.0000,    -0.0064],  # S  40
  [    0.0005,     0.0000,     0.0064],  # S  41
  [   -0.0000,    -0.0000,     0.0000],  # Mo 42
  [    0.0003,     0.0005,    -0.0064],  # S  43
  [    0.0003,     0.0005,     0.0064],  # S  44
  [    0.0002,    -0.0002,     0.0000],  # Mo 45
  [    0.0007,     0.0000,    -0.0070],  # S  46
  [    0.0007,     0.0000,     0.0070],  # S  47
  [    0.0000,     0.0002,     0.0000],  # Mo 48
  [    0.0002,    -0.0001,    -0.0069],  # S  49
  [    0.0002,    -0.0001,     0.0069],  # S  50
  [    0.0002,    -0.0001,     0.0000],  # Mo 51
  [   -0.0000,     0.0002,    -0.0069],  # S  52
  [    0.0000,     0.0002,     0.0069],  # S  53
  [   -0.0001,     0.0002,     0.0000],  # Mo 54
  [    0.0004,     0.0006,    -0.0070],  # S  55
  [    0.0004,     0.0006,     0.0070],  # S  56
  [    0.0001,     0.0001,     0.0000],  # Mo 57
  [    0.0009,     0.0005,    -0.0076],  # S  58
  [    0.0009,     0.0005,     0.0076],  # S  59
  [    0.0002,    -0.0001,     0.0000],  # Mo 60
  [    0.0007,    -0.0004,    -0.0083],  # S  61
  [    0.0007,    -0.0004,     0.0083],  # S  62
  [    0.0001,    -0.0001,     0.0000],  # Mo 63
  [    0.0003,    -0.0006,    -0.0070],  # S  64
  [    0.0003,    -0.0006,     0.0070],  # S  65
  [   -0.0002,    -0.0001,     0.0000],  # Mo 66
  [   -0.0000,    -0.0000,    -0.0069],  # S  67
  [   -0.0000,    -0.0000,     0.0069],  # S  68
  [   -0.0000,     0.0002,     0.0000],  # Mo 69
  [   -0.0004,     0.0006,    -0.0070],  # S  70
  [   -0.0004,     0.0006,     0.0070],  # S  71
  [    0.0000,     0.0002,     0.0000],  # Mo 72
  [   -0.0000,     0.0008,    -0.0083],  # S  73
  [    0.0000,     0.0008,     0.0083]]  # S  74
---

timing:  # [seconds]
  Total:  20312.373  # ━━━━━━━━━━━━━━━━━━━━━━━━━━━━━━━━━━━━━━━━━━━━━━━━━━━━━━
  Init:       8.565  # 
  SCF:     1306.843  # ━━━╸
  Forces:    17.672  # 
  Move:      13.373  # 

Max RSS: 3232.543  # MiB
