  ___ ___ ___ _ _ _
 |   |   |_  | | | |
 | | | | | . | | | |
 |__ |  _|___|_____| - 25.7.0
 |___|_|

User:   root@autodl-container-cb134f97cf-3ebc7372
Date:   Fri May 15 08:56:03 2026
Arch:   x86_64
Pid:    751134
CWD:    /root/autodl-tmp/2d-defect-dast
Python: 3.10.20
gpaw:   /root/miniconda3/envs/gpaw-env/lib/python3.10/site-packages/gpaw
_gpaw:  /root/miniconda3/envs/gpaw-env/lib/python3.10/site-packages/
        _gpaw.cpython-310-x86_64-linux-gnu.so
ase:    /root/miniconda3/envs/gpaw-env/lib/python3.10/site-packages/ase (version 3.28.0)
numpy:  /root/miniconda3/envs/gpaw-env/lib/python3.10/site-packages/numpy (version 2.2.6)
scipy:  /root/miniconda3/envs/gpaw-env/lib/python3.10/site-packages/scipy (version 1.15.2)
libxc:  7.0.0
units:  Angstrom and eV
cores: 1
OpenMP: False
OMP_NUM_THREADS: 1

input parameters:
  mode=PW(ecut=500.0),
  kpts=MonkhorstPack(size=array([8, 8, 8])),
  occupations=Occupations(name='fermi-dirac', width=0.05, fixmagmom=False),
  parallel={'gpu': True},
  spinpol=False,
  xc=XC(name='PBE')

environment variables:
  GPAW_CPUPY=False,
  GPAW_MPI4PY=False,
  GPAW_NEW=True,
  GPAW_NO_C_EXTENSION=False,
  GPAW_TRACE=False,
  GPAW_USE_GPUS=True

Diagonalizing LCAO Hamiltonian
Converting LCAO to grid
   .-------.  
  /|       |  
 * |       |  
 | |  Mo   |  
 | .-------.  
 |/       /   
 Mo------*    

Atomic positions and initial magnetic moments

Positions:
   0 Mo     0.000000    0.000000    0.000000    ( 0.0000,  0.0000,  0.0000)
   1 Mo     1.580000    1.580000    1.580000    ( 0.0000,  0.0000,  0.0000)

Unit cell:
           periodic     x           y           z      points  spacing
  1. axis:    yes    3.160000    0.000000    0.000000    18     0.1756
  2. axis:    yes    0.000000    3.160000    0.000000    18     0.1756
  3. axis:    yes    0.000000    0.000000    3.160000    18     0.1756

  Lengths:   3.160000   3.160000   3.160000
  Angles:   90.000000  90.000000  90.000000

Effective grid spacing dv^(1/3) = 0.1756

symmetry:
  number of symmetries: 48
  rotations: [
    [[ 1,  0,  0], [ 0,  1,  0], [ 0,  0,  1]],
    [[ 1,  0,  0], [ 0,  1,  0], [ 0,  0, -1]],
    [[ 1,  0,  0], [ 0,  0,  1], [ 0,  1,  0]],
    [[ 1,  0,  0], [ 0,  0,  1], [ 0, -1,  0]],
    [[ 1,  0,  0], [ 0,  0, -1], [ 0,  1,  0]],
    [[ 1,  0,  0], [ 0,  0, -1], [ 0, -1,  0]],
    [[ 1,  0,  0], [ 0, -1,  0], [ 0,  0,  1]],
    [[ 1,  0,  0], [ 0, -1,  0], [ 0,  0, -1]],
    [[ 0,  1,  0], [ 1,  0,  0], [ 0,  0,  1]],
    [[ 0,  1,  0], [ 1,  0,  0], [ 0,  0, -1]],
    [[ 0,  1,  0], [ 0,  0,  1], [ 1,  0,  0]],
    [[ 0,  1,  0], [ 0,  0,  1], [-1,  0,  0]],
    [[ 0,  1,  0], [ 0,  0, -1], [ 1,  0,  0]],
    [[ 0,  1,  0], [ 0,  0, -1], [-1,  0,  0]],
    [[ 0,  1,  0], [-1,  0,  0], [ 0,  0,  1]],
    [[ 0,  1,  0], [-1,  0,  0], [ 0,  0, -1]],
    [[ 0,  0,  1], [ 1,  0,  0], [ 0,  1,  0]],
    [[ 0,  0,  1], [ 1,  0,  0], [ 0, -1,  0]],
    [[ 0,  0,  1], [ 0,  1,  0], [ 1,  0,  0]],
    [[ 0,  0,  1], [ 0,  1,  0], [-1,  0,  0]],
    [[ 0,  0,  1], [ 0, -1,  0], [ 1,  0,  0]],
    [[ 0,  0,  1], [ 0, -1,  0], [-1,  0,  0]],
    [[ 0,  0,  1], [-1,  0,  0], [ 0,  1,  0]],
    [[ 0,  0,  1], [-1,  0,  0], [ 0, -1,  0]],
    [[ 0,  0, -1], [ 1,  0,  0], [ 0,  1,  0]],
    [[ 0,  0, -1], [ 1,  0,  0], [ 0, -1,  0]],
    [[ 0,  0, -1], [ 0,  1,  0], [ 1,  0,  0]],
    [[ 0,  0, -1], [ 0,  1,  0], [-1,  0,  0]],
    [[ 0,  0, -1], [ 0, -1,  0], [ 1,  0,  0]],
    [[ 0,  0, -1], [ 0, -1,  0], [-1,  0,  0]],
    [[ 0,  0, -1], [-1,  0,  0], [ 0,  1,  0]],
    [[ 0,  0, -1], [-1,  0,  0], [ 0, -1,  0]],
    [[ 0, -1,  0], [ 1,  0,  0], [ 0,  0,  1]],
    [[ 0, -1,  0], [ 1,  0,  0], [ 0,  0, -1]],
    [[ 0, -1,  0], [ 0,  0,  1], [ 1,  0,  0]],
    [[ 0, -1,  0], [ 0,  0,  1], [-1,  0,  0]],
    [[ 0, -1,  0], [ 0,  0, -1], [ 1,  0,  0]],
    [[ 0, -1,  0], [ 0,  0, -1], [-1,  0,  0]],
    [[ 0, -1,  0], [-1,  0,  0], [ 0,  0,  1]],
    [[ 0, -1,  0], [-1,  0,  0], [ 0,  0, -1]],
    [[-1,  0,  0], [ 0,  1,  0], [ 0,  0,  1]],
    [[-1,  0,  0], [ 0,  1,  0], [ 0,  0, -1]],
    [[-1,  0,  0], [ 0,  0,  1], [ 0,  1,  0]],
    [[-1,  0,  0], [ 0,  0,  1], [ 0, -1,  0]],
    [[-1,  0,  0], [ 0,  0, -1], [ 0,  1,  0]],
    [[-1,  0,  0], [ 0,  0, -1], [ 0, -1,  0]],
    [[-1,  0,  0], [ 0, -1,  0], [ 0,  0,  1]],
    [[-1,  0,  0], [ 0, -1,  0], [ 0,  0, -1]]]

bz sampling:
  number of bz points: 512
  number of ibz points: 20
  monkhorst-pack size: [8, 8, 8]
  monkhorst-pack shift: [0, 0, 0]
  points and weights: [
    [[  0.06250000,   0.06250000,   0.06250000], 0.01562500],  # 0
    [[  0.18750000,   0.06250000,   0.06250000], 0.04687500],  # 1
    [[  0.18750000,   0.18750000,   0.06250000], 0.04687500],  # 2
    [[  0.18750000,   0.18750000,   0.18750000], 0.01562500],  # 3
    [[  0.31250000,   0.06250000,   0.06250000], 0.04687500],  # 4
    [[  0.31250000,   0.18750000,   0.06250000], 0.09375000],  # 5
    [[  0.31250000,   0.18750000,   0.18750000], 0.04687500],  # 6
    [[  0.31250000,   0.31250000,   0.06250000], 0.04687500],  # 7
    [[  0.31250000,   0.31250000,   0.18750000], 0.04687500],  # 8
    [[  0.31250000,   0.31250000,   0.31250000], 0.01562500],  # 9
    # ...
    [[  0.43750000,   0.43750000,   0.43750000], 0.01562500]]  # 19

plane wave coefficients: 807
cutoff: 500.0 eV

spin-components: 1  # (collinear spins)
bands: 21
spin-degeneracy: 2
dtype: complex128

memory:
    storage: GPU
    wave functions: 5_328_960  # bytes  (5_328_960 per core)

parallelization:
    kpt:    1
    domain: 1
    band:   1

density:
  valence electrons: 28.0
  components: 1
  grid points: [18 18 18]
  charge: 0.0  # |e|

potential:
  grid points: [18 18 18]

species:
  Mo:
    name: Molybdenum
    id: 296a29d4664fe6c6f68623909fe0870f
    Z: 42.0
    valence: 14
    core: 28
    charge: 0.0
    file: /root/miniconda3/envs/gpaw-env/lib/python3.10/site-packages/gpaw_data/setups/Mo.PBE.gz
    compensation charges: {type: gauss,
                           rc: 0.38,
                           lmax: 2}
    cutoffs: {filter: 2.16,
              core: 1.42}
    projectors:
      #              energy  rcut
      - 4s(2.00)   -64.307   1.238
      - 5s(1.00)    -4.084   1.238
      - 4p(6.00)   -38.491   1.296
      - 5p(0.00)    -1.044   1.296
      - 4d(5.00)    -3.754   1.296
      -  d          23.458   1.296
  
    # Using partial waves for Mo as LCAO basis

Reference energy: -220268.145263  # eV

eigensolver:
  {'converge_bands': 'occupied', 'name': 'Davidson', 'niter': 2}
Density mixing:
  Method: separate
  Backend: pulay
  Linear mixing parameter: 0.05
  old densities: 5
  Damping of long wavelength oscillations: 50
occupation numbers:
  Fermi-Dirac:
    width: 0.0500  # eV
  

<gpaw.new.pw.paw_poisson.SlowPAWPoissonSolver object at 0x7f981930e560>
xc functional:
  name: PBE with 2 nearest neighbor stencil

convergence criteria:
- Maximum [total energy] change in last 3 cyles: 0.0005 eV / valence electron
- Maximum integral of absolute [dens]ity change: 0.0001 electrons / valence electron
- Maximum integral of absolute [eigenst]ate change: 4e-08 eV^2 / valence electron
maximum number of iterations: 333

     iter     time        total  log10-change:
                         energy   eigst   dens
iter:   1 08:56:05   -24.142427   +0.72
iter:   2 08:56:06   -24.000481   -0.51  -1.19
iter:   3 08:56:06   -22.903545   -0.27  -1.20
iter:   4 08:56:06   -22.678137   -2.13  -1.67
iter:   5 08:56:07   -24.216670   -1.06  -1.81
iter:   6 08:56:07   -22.526301   -0.77  -1.32
iter:   7 08:56:07   -22.529835   -2.78  -2.68
iter:   8 08:56:08   -22.535998c  -3.81  -2.42
iter:   9 08:56:08   -22.527175c  -2.47  -2.37
iter:  10 08:56:08   -22.525620c  -4.37  -2.67
iter:  11 08:56:09   -22.525651c  -5.59  -2.77
iter:  12 08:56:09   -22.523766c  -3.60  -2.79
iter:  13 08:56:09   -22.523771c  -5.52  -4.04c
iter:  14 08:56:10   -22.523762c  -5.89  -4.01c
iter:  15 08:56:10   -22.523762c  -7.39  -4.94c
iter:  16 08:56:10   -22.523764c  -6.80  -4.99c
iter:  17 08:56:11   -22.523762c  -6.92  -4.45c
iter:  18 08:56:11   -22.523762c  -6.95  -5.04c
iter:  19 08:56:11   -22.523762c  -6.93  -4.45c
iter:  20 08:56:12   -22.523762c  -8.82c -5.13c
Converged in 20 steps
Energy contributions relative to reference atoms: (reference = -220268.145263)

kinetic:         -25.851553
coulomb:          14.556810
zero:             -0.509099
external:          0.000000
xc:              -10.714591
entropy:          -0.010657
spinorbit:         0.000000
----------------------------
Free energy:     -22.529091
Extrapolated:    -22.523762

dipole moment: [-11.824312, -11.824312, -11.824312]  # |e|*Ang


Fermi level: 13.423

kpt = [0.062, 0.062, 0.062], weight = 0.016:
  Band      eig [eV]   occ [0-2]
     0       -47.948       2.000
   ...
     6       -21.302       2.000
     7       -21.302       2.000
     8         6.482       2.000
     9         8.245       2.000
    10         8.245       2.000
    11        11.934       2.000
    12        11.934       2.000
    13        12.321       2.000
    14        14.880       0.000
    15        14.880       0.000
    16        16.140       0.000
    17        17.029       0.000
    18        17.029       0.000
    19        22.682       0.000
    20        22.978       0.000

kpt = [0.188, 0.062, 0.062], weight = 0.047:
  Band      eig [eV]   occ [0-2]
     0       -47.912       2.000
   ...
     6       -21.368       2.000
     7       -21.330       2.000
     8         7.108       2.000
     9         8.585       2.000
    10         8.778       2.000
    11        11.747       2.000
    12        11.863       2.000
    13        12.802       2.000
    14        14.187       0.000
    15        14.758       0.000
    16        15.208       0.000
    17        15.714       0.000
    18        16.927       0.000
    19        21.108       0.000
    20        24.565       0.000

kpt = [0.188, 0.188, 0.062], weight = 0.047:
  Band      eig [eV]   occ [0-2]
     0       -47.881       2.000
   ...
     6       -21.417       2.000
     7       -21.305       2.000
     8         7.627       2.000
     9         8.909       2.000
    10         9.262       2.000
    11        11.302       2.000
    12        11.674       2.000
    13        13.400       1.226
    14        13.609       0.047
    15        14.441       0.000
    16        14.962       0.000
    17        15.015       0.000
    18        17.222       0.000
    19        21.946       0.000
    20        23.580       0.000
(only showing first 3 out of 20 k-points)

No gap
No difference between direct/indirect transitions

Forces: [  # eV/Ang
  [    0.0000,     0.0000,    -0.0000],  # Mo 0
  [    0.0000,    -0.0000,     0.0000]]  # Mo 1
---

timing:  # [seconds]
  Total:  20340.948  # ━━━━━━━━━━━━━━━━━━━━━━━━━━━━━━━━━━━━━━━━━━━━━━━━━━━━━━
  Init:       1.579  # 
  SCF:        7.089  # 
  Forces:     0.044  # 

Max RSS: 3232.543  # MiB
