  ___ ___ ___ _ _ _
 |   |   |_  | | | |
 | | | | | . | | | |
 |__ |  _|___|_____| - 25.7.0
 |___|_|

User:   root@autodl-container-cb134f97cf-3ebc7372
Date:   Fri May 15 08:56:29 2026
Arch:   x86_64
Pid:    751134
CWD:    /root/autodl-tmp/2d-defect-dast
Python: 3.10.20
gpaw:   /root/miniconda3/envs/gpaw-env/lib/python3.10/site-packages/gpaw
_gpaw:  /root/miniconda3/envs/gpaw-env/lib/python3.10/site-packages/
        _gpaw.cpython-310-x86_64-linux-gnu.so
ase:    /root/miniconda3/envs/gpaw-env/lib/python3.10/site-packages/ase (version 3.28.0)
numpy:  /root/miniconda3/envs/gpaw-env/lib/python3.10/site-packages/numpy (version 2.2.6)
scipy:  /root/miniconda3/envs/gpaw-env/lib/python3.10/site-packages/scipy (version 1.15.2)
libxc:  7.0.0
units:  Angstrom and eV
cores: 1
OpenMP: False
OMP_NUM_THREADS: 1

input parameters:
  mode=PW(ecut=500.0),
  kpts=MonkhorstPack(size=array([2, 2, 1])),
  occupations=Occupations(name='fermi-dirac', width=0.05, fixmagmom=False),
  parallel={'gpu': True},
  spinpol=False,
  xc=XC(name='PBE')

environment variables:
  GPAW_CPUPY=False,
  GPAW_MPI4PY=False,
  GPAW_NEW=True,
  GPAW_NO_C_EXTENSION=False,
  GPAW_TRACE=False,
  GPAW_USE_GPUS=True

Diagonalizing LCAO Hamiltonian
Converting LCAO to grid
         .-------------------------.  
        /|                         |  
       / |                         |  
      /  |                         |  
     /   |                         |  
    /    |                         |  
   /     |                         |  
  /      |                         |  
 *       |                         |  
 |       |                         |  
 |       |                         |  
 |       |                         |  
 |       |                         |  
 |       |                         |  
 |       |                         |  
 |       |                         |  
 |       |                         |  
 |       |                         |  
 |       |                         |  
 |       |                         |  
 |       |                         |  
 |       |                         |  
 |       |                         |  
 |       |                         |  
 |       |                         |  
 |       |                         |  
 |       |                         |  
 |       |                         |  
 |       |                         |  
 |       |                         |  
 |       .-------------------------.  
 |      /                         /   
 |     /                         /    
 |    /                         /     
 |   /                         /      
 |  /                         /       
 | /                         /        
 |/                         /         
 S-------------------------*          

Atomic positions and initial magnetic moments

Positions:
   0 S      0.000000    0.000000    0.000000    ( 0.0000,  0.0000,  0.0000)

Unit cell:
           periodic     x           y           z      points  spacing
  1. axis:    yes   10.400000    0.000000    0.000000    54     0.1926
  2. axis:    yes    0.000000   12.800000    0.000000    70     0.1829
  3. axis:    yes    0.000000    0.000000   24.400000   126     0.1937

  Lengths:  10.400000  12.800000  24.400000
  Angles:   90.000000  90.000000  90.000000

Effective grid spacing dv^(1/3) = 0.1896

symmetry:
  number of symmetries: 8
  rotations: [
    [[ 1,  0,  0], [ 0,  1,  0], [ 0,  0,  1]],
    [[ 1,  0,  0], [ 0,  1,  0], [ 0,  0, -1]],
    [[ 1,  0,  0], [ 0, -1,  0], [ 0,  0,  1]],
    [[ 1,  0,  0], [ 0, -1,  0], [ 0,  0, -1]],
    [[-1,  0,  0], [ 0,  1,  0], [ 0,  0,  1]],
    [[-1,  0,  0], [ 0,  1,  0], [ 0,  0, -1]],
    [[-1,  0,  0], [ 0, -1,  0], [ 0,  0,  1]],
    [[-1,  0,  0], [ 0, -1,  0], [ 0,  0, -1]]]

bz sampling:
  number of bz points: 4
  number of ibz points: 1
  monkhorst-pack size: [2, 2, 1]
  monkhorst-pack shift: [0, 0, 0]
  points and weights: [
    [[  0.25000000,   0.25000000,   0.00000000], 1.00000000]]  # 0

plane wave coefficients: 82457
cutoff: 500.0 eV

spin-components: 1  # (collinear spins)
bands: 4
spin-degeneracy: 2
dtype: complex128

memory:
    storage: GPU
    wave functions: 5_277_248  # bytes  (5_277_248 per core)

parallelization:
    kpt:    1
    domain: 1
    band:   1

density:
  valence electrons: 6.0
  components: 1
  grid points: [ 54  70 126]
  charge: 0.0  # |e|

potential:
  grid points: [ 54  70 126]

species:
  S:
    name: Sulfur
    id: ca434db9faa07220b7a1d8cb6886b7a9
    Z: 16.0
    valence: 6
    core: 10
    charge: 0.0
    file: /root/miniconda3/envs/gpaw-env/lib/python3.10/site-packages/gpaw_data/setups/S.PBE.gz
    compensation charges: {type: gauss,
                           rc: 0.24,
                           lmax: 2}
    cutoffs: {filter: 1.77,
              core: 1.66}
    projectors:
      #              energy  rcut
      - 3s(2.00)   -17.254   0.974
      - 3p(4.00)    -7.008   0.979
      -  s           9.957   0.974
      -  p          20.203   0.979
      -  d           0.000   0.900
  
    # Using partial waves for S as LCAO basis

Reference energy: -10857.619898  # eV

eigensolver:
  {'converge_bands': 'occupied', 'name': 'Davidson', 'niter': 2}
Density mixing:
  Method: separate
  Backend: pulay
  Linear mixing parameter: 0.05
  old densities: 5
  Damping of long wavelength oscillations: 50
occupation numbers:
  Fermi-Dirac:
    width: 0.0500  # eV
  

<gpaw.new.pw.paw_poisson.SlowPAWPoissonSolver object at 0x7f9818b24520>
xc functional:
  name: PBE with 2 nearest neighbor stencil

convergence criteria:
- Maximum [total energy] change in last 3 cyles: 0.0005 eV / valence electron
- Maximum integral of absolute [dens]ity change: 0.0001 electrons / valence electron
- Maximum integral of absolute [eigenst]ate change: 4e-08 eV^2 / valence electron
maximum number of iterations: 333

     iter     time        total  log10-change:
                         energy   eigst   dens
iter:   1 08:56:30    -0.095711   -1.69
iter:   2 08:56:30    -0.096921   -2.86  -2.63
iter:   3 08:56:30    -0.097000c  -3.81  -2.52
iter:   4 08:56:31    -0.097352c  -4.13  -2.44
iter:   5 08:56:31    -0.097355c  -5.15  -2.86
iter:   6 08:56:31    -0.097401c  -4.87  -2.85
iter:   7 08:56:31    -0.097429c  -5.37  -2.69
iter:   8 08:56:31    -0.097428c  -6.16  -3.33
iter:   9 08:56:31    -0.097429c  -6.94  -3.51
iter:  10 08:56:32    -0.097428c  -6.81  -3.69
iter:  11 08:56:32    -0.097428c  -8.04c -4.50c
Converged in 11 steps
Energy contributions relative to reference atoms: (reference = -10857.619898)

kinetic:          -0.009075
coulomb:          -0.088237
zero:              0.095834
external:          0.000000
xc:               -0.000473
entropy:          -0.190954
spinorbit:         0.000000
----------------------------
Free energy:      -0.192905
Extrapolated:     -0.097428

dipole moment: [-33.514439, -41.248541, -78.630030]  # |e|*Ang


Fermi level: -6.906

kpt = [0.250, 0.250, 0.000], weight = 1.000:
  Band      eig [eV]   occ [0-2]
     0       -17.192       2.000
     1        -6.941       1.333
     2        -6.941       1.333
     3        -6.941       1.333

Could not find a gap
---

timing:  # [seconds]
  Total: 20314.883  # ━━━━━━━━━━━━━━━━━━━━━━━━━━━━━━━━━━━━━━━━━━━━━━━━━━━━━━━
  Init:      0.815  # 
  SCF:       1.693  # 

Max RSS: 3232.543  # MiB
