  ___ ___ ___ _ _ _
 |   |   |_  | | | |
 | | | | | . | | | |
 |__ |  _|___|_____| - 25.7.0
 |___|_|

User:   root@autodl-container-cb134f97cf-3ebc7372
Date:   Fri May 15 20:47:26 2026
Arch:   x86_64
Pid:    739224
CWD:    /root/autodl-tmp/2d-defect-dast
Python: 3.10.20
gpaw:   /root/miniconda3/envs/gpaw-env/lib/python3.10/site-packages/gpaw
_gpaw:  /root/miniconda3/envs/gpaw-env/lib/python3.10/site-packages/
        _gpaw.cpython-310-x86_64-linux-gnu.so
ase:    /root/miniconda3/envs/gpaw-env/lib/python3.10/site-packages/ase (version 3.28.0)
numpy:  /root/miniconda3/envs/gpaw-env/lib/python3.10/site-packages/numpy (version 2.2.6)
scipy:  /root/miniconda3/envs/gpaw-env/lib/python3.10/site-packages/scipy (version 1.15.2)
libxc:  7.0.0
units:  Angstrom and eV
cores: 1
OpenMP: False
OMP_NUM_THREADS: 1

input parameters:
  mode=PW(ecut=500.0),
  kpts=MonkhorstPack(size=array([8, 8, 8])),
  occupations=Occupations(name='fermi-dirac', width=0.05, fixmagmom=False),
  parallel={'gpu': True},
  spinpol=True,
  xc=XC(name='PBE')

environment variables:
  GPAW_CPUPY=False,
  GPAW_MPI4PY=False,
  GPAW_NEW=True,
  GPAW_NO_C_EXTENSION=False,
  GPAW_TRACE=False,
  GPAW_USE_GPUS=True

Diagonalizing LCAO Hamiltonian
Converting LCAO to grid
   .-------.  
  /|       |  
 * |       |  
 | |  W    |  
 | .-------.  
 |/       /   
 W-------*    

Atomic positions and initial magnetic moments

Positions:
   0 W      0.000000    0.000000    0.000000    ( 0.0000,  0.0000,  0.0000)
   1 W      1.580000    1.580000    1.580000    ( 0.0000,  0.0000,  0.0000)

Unit cell:
           periodic     x           y           z      points  spacing
  1. axis:    yes    3.160000    0.000000    0.000000    18     0.1756
  2. axis:    yes    0.000000    3.160000    0.000000    18     0.1756
  3. axis:    yes    0.000000    0.000000    3.160000    18     0.1756

  Lengths:   3.160000   3.160000   3.160000
  Angles:   90.000000  90.000000  90.000000

Effective grid spacing dv^(1/3) = 0.1756

symmetry:
  number of symmetries: 48
  rotations: [
    [[ 1,  0,  0], [ 0,  1,  0], [ 0,  0,  1]],
    [[ 1,  0,  0], [ 0,  1,  0], [ 0,  0, -1]],
    [[ 1,  0,  0], [ 0,  0,  1], [ 0,  1,  0]],
    [[ 1,  0,  0], [ 0,  0,  1], [ 0, -1,  0]],
    [[ 1,  0,  0], [ 0,  0, -1], [ 0,  1,  0]],
    [[ 1,  0,  0], [ 0,  0, -1], [ 0, -1,  0]],
    [[ 1,  0,  0], [ 0, -1,  0], [ 0,  0,  1]],
    [[ 1,  0,  0], [ 0, -1,  0], [ 0,  0, -1]],
    [[ 0,  1,  0], [ 1,  0,  0], [ 0,  0,  1]],
    [[ 0,  1,  0], [ 1,  0,  0], [ 0,  0, -1]],
    [[ 0,  1,  0], [ 0,  0,  1], [ 1,  0,  0]],
    [[ 0,  1,  0], [ 0,  0,  1], [-1,  0,  0]],
    [[ 0,  1,  0], [ 0,  0, -1], [ 1,  0,  0]],
    [[ 0,  1,  0], [ 0,  0, -1], [-1,  0,  0]],
    [[ 0,  1,  0], [-1,  0,  0], [ 0,  0,  1]],
    [[ 0,  1,  0], [-1,  0,  0], [ 0,  0, -1]],
    [[ 0,  0,  1], [ 1,  0,  0], [ 0,  1,  0]],
    [[ 0,  0,  1], [ 1,  0,  0], [ 0, -1,  0]],
    [[ 0,  0,  1], [ 0,  1,  0], [ 1,  0,  0]],
    [[ 0,  0,  1], [ 0,  1,  0], [-1,  0,  0]],
    [[ 0,  0,  1], [ 0, -1,  0], [ 1,  0,  0]],
    [[ 0,  0,  1], [ 0, -1,  0], [-1,  0,  0]],
    [[ 0,  0,  1], [-1,  0,  0], [ 0,  1,  0]],
    [[ 0,  0,  1], [-1,  0,  0], [ 0, -1,  0]],
    [[ 0,  0, -1], [ 1,  0,  0], [ 0,  1,  0]],
    [[ 0,  0, -1], [ 1,  0,  0], [ 0, -1,  0]],
    [[ 0,  0, -1], [ 0,  1,  0], [ 1,  0,  0]],
    [[ 0,  0, -1], [ 0,  1,  0], [-1,  0,  0]],
    [[ 0,  0, -1], [ 0, -1,  0], [ 1,  0,  0]],
    [[ 0,  0, -1], [ 0, -1,  0], [-1,  0,  0]],
    [[ 0,  0, -1], [-1,  0,  0], [ 0,  1,  0]],
    [[ 0,  0, -1], [-1,  0,  0], [ 0, -1,  0]],
    [[ 0, -1,  0], [ 1,  0,  0], [ 0,  0,  1]],
    [[ 0, -1,  0], [ 1,  0,  0], [ 0,  0, -1]],
    [[ 0, -1,  0], [ 0,  0,  1], [ 1,  0,  0]],
    [[ 0, -1,  0], [ 0,  0,  1], [-1,  0,  0]],
    [[ 0, -1,  0], [ 0,  0, -1], [ 1,  0,  0]],
    [[ 0, -1,  0], [ 0,  0, -1], [-1,  0,  0]],
    [[ 0, -1,  0], [-1,  0,  0], [ 0,  0,  1]],
    [[ 0, -1,  0], [-1,  0,  0], [ 0,  0, -1]],
    [[-1,  0,  0], [ 0,  1,  0], [ 0,  0,  1]],
    [[-1,  0,  0], [ 0,  1,  0], [ 0,  0, -1]],
    [[-1,  0,  0], [ 0,  0,  1], [ 0,  1,  0]],
    [[-1,  0,  0], [ 0,  0,  1], [ 0, -1,  0]],
    [[-1,  0,  0], [ 0,  0, -1], [ 0,  1,  0]],
    [[-1,  0,  0], [ 0,  0, -1], [ 0, -1,  0]],
    [[-1,  0,  0], [ 0, -1,  0], [ 0,  0,  1]],
    [[-1,  0,  0], [ 0, -1,  0], [ 0,  0, -1]]]

bz sampling:
  number of bz points: 512
  number of ibz points: 20
  monkhorst-pack size: [8, 8, 8]
  monkhorst-pack shift: [0, 0, 0]
  points and weights: [
    [[  0.06250000,   0.06250000,   0.06250000], 0.01562500],  # 0
    [[  0.18750000,   0.06250000,   0.06250000], 0.04687500],  # 1
    [[  0.18750000,   0.18750000,   0.06250000], 0.04687500],  # 2
    [[  0.18750000,   0.18750000,   0.18750000], 0.01562500],  # 3
    [[  0.31250000,   0.06250000,   0.06250000], 0.04687500],  # 4
    [[  0.31250000,   0.18750000,   0.06250000], 0.09375000],  # 5
    [[  0.31250000,   0.18750000,   0.18750000], 0.04687500],  # 6
    [[  0.31250000,   0.31250000,   0.06250000], 0.04687500],  # 7
    [[  0.31250000,   0.31250000,   0.18750000], 0.04687500],  # 8
    [[  0.31250000,   0.31250000,   0.31250000], 0.01562500],  # 9
    # ...
    [[  0.43750000,   0.43750000,   0.43750000], 0.01562500]]  # 19

plane wave coefficients: 807
cutoff: 500.0 eV

spin-components: 2  # (collinear spins)
bands: 21
spin-degeneracy: 1
dtype: complex128

memory:
    storage: GPU
    wave functions: 10_657_920  # bytes  (10_657_920 per core)

parallelization:
    kpt:    1
    domain: 1
    band:   1

density:
  valence electrons: 28.0
  components: 2
  grid points: [18 18 18]
  charge: 0.0  # |e|

potential:
  grid points: [18 18 18]

species:
  W:
    name: Tungsten
    id: 3ed563b7d19992259c4d7db283f2ff78
    Z: 74.0
    valence: 14
    core: 60
    charge: 0.0
    file: /root/miniconda3/envs/gpaw-env/lib/python3.10/site-packages/gpaw_data/setups/W.PBE.gz
    compensation charges: {type: gauss,
                           rc: 0.40,
                           lmax: 2}
    cutoffs: {filter: 2.36,
              core: 3.02}
    projectors:
      #              energy  rcut
      - 5s(2.00)   -78.830   1.344
      - 6s(2.00)    -5.697   1.344
      - 5p(6.00)   -43.233   1.355
      - 6p(0.00)    -1.367   1.355
      - 5d(4.00)    -4.494   1.228
      -  d          22.717   1.228
  
    # Using partial waves for W as LCAO basis

Reference energy: -877543.343310  # eV

eigensolver:
  {'converge_bands': 'occupied', 'name': 'Davidson', 'niter': 2}
Density mixing:
  Method: difference
  Backend: pulay
  Linear mixing parameter: 0.05
  old densities: 5
  Damping of long wavelength oscillations: 50
occupation numbers:
  Fermi-Dirac:
    width: 0.0500  # eV
  

<gpaw.new.pw.paw_poisson.SlowPAWPoissonSolver object at 0x7fcf50f8ae00>
xc functional:
  name: PBE with 2 nearest neighbor stencil

convergence criteria:
- Maximum [total energy] change in last 3 cyles: 0.0005 eV / valence electron
- Maximum integral of absolute [dens]ity change: 0.0001 electrons / valence electron
- Maximum integral of absolute [eigenst]ate change: 4e-08 eV^2 / valence electron
maximum number of iterations: 333

     iter     time        total  log10-change:  magmom
                         energy   eigst   dens
iter:   1 20:47:28   -23.537453   +0.55           +0.0000
iter:   2 20:47:29   -23.513206   -1.38  -1.30    +0.0000
iter:   3 20:47:29   -23.894125   -0.63  -1.32    +0.0000
iter:   4 20:47:30   -23.347607   -2.14  -1.41    +0.0000
iter:   5 20:47:31   -23.187270   -2.19  -1.73    -0.0000
iter:   6 20:47:31   -23.129746   -2.18  -2.03    -0.0000
iter:   7 20:47:32   -23.129813   -3.64  -3.09    -0.0000
iter:   8 20:47:33   -23.129835c  -4.94  -3.49    -0.0000
iter:   9 20:47:33   -23.129848c  -6.09  -4.18c   -0.0000
iter:  10 20:47:34   -23.129846c  -8.10c -3.89    -0.0000
iter:  11 20:47:34   -23.129823c  -5.93  -3.93    -0.0000
iter:  12 20:47:35   -23.129831c  -6.74  -4.32c   -0.0000
iter:  13 20:47:36   -23.129827c  -7.60c -4.53c   -0.0000
Converged in 13 steps
Energy contributions relative to reference atoms: (reference = -877543.343310)

kinetic:          17.291374
coulomb:         -20.251631
zero:             -0.010049
external:          0.000000
xc:              -20.152917
entropy:          -0.013208
spinorbit:         0.000000
----------------------------
Free energy:     -23.136432
Extrapolated:    -23.129827

dipole moment: [-11.790921, -11.790921, -11.790921]  # |e|*Ang

total magnetic moment: [0.000000, 0.000000, -0.000000]

local magnetic moments: [
  [ 0.000000,  0.000000,  0.000000],  # W  0
  [ 0.000000,  0.000000, -0.000000]]  # W  1


Fermi level: 14.725

kpt = [0.062, 0.062, 0.062], weight = 0.016:
  Band      eig [eV]   occ [0-1]      eig [eV]   occ [0-1]
     0       -59.260       1.000       -59.260       1.000
     1       -59.033       1.000       -59.033       1.000
     2       -24.001       1.000       -24.001       1.000
     3       -24.001       1.000       -24.001       1.000
     4       -23.930       1.000       -23.930       1.000
     5       -23.176       1.000       -23.176       1.000
     6       -23.098       1.000       -23.098       1.000
     7       -23.098       1.000       -23.098       1.000
     8         5.383       1.000         5.383       1.000
     9         9.036       1.000         9.036       1.000
    10         9.036       1.000         9.036       1.000
    11        13.336       1.000        13.336       1.000
    12        13.336       1.000        13.336       1.000
    13        13.794       1.000        13.794       1.000
    14        16.831       0.000        16.831       0.000
    15        16.831       0.000        16.831       0.000
    16        18.144       0.000        18.144       0.000
    17        19.469       0.000        19.469       0.000
    18        19.469       0.000        19.469       0.000
    19        23.551       0.000        23.551       0.000
    20        23.843       0.000        23.843       0.000

kpt = [0.188, 0.062, 0.062], weight = 0.047:
  Band      eig [eV]   occ [0-1]      eig [eV]   occ [0-1]
     0       -59.241       1.000       -59.241       1.000
     1       -59.048       1.000       -59.048       1.000
     2       -24.036       1.000       -24.036       1.000
     3       -23.930       1.000       -23.930       1.000
     4       -23.829       1.000       -23.829       1.000
     5       -23.338       1.000       -23.338       1.000
     6       -23.164       1.000       -23.164       1.000
     7       -23.126       1.000       -23.126       1.000
     8         6.095       1.000         6.095       1.000
     9         9.412       1.000         9.412       1.000
    10         9.585       1.000         9.585       1.000
    11        13.096       1.000        13.096       1.000
    12        13.221       1.000        13.221       1.000
    13        14.349       0.999        14.349       0.999
    14        15.941       0.000        15.941       0.000
    15        16.356       0.000        16.356       0.000
    16        17.253       0.000        17.253       0.000
    17        17.614       0.000        17.614       0.000
    18        19.316       0.000        19.316       0.000
    19        21.730       0.000        21.730       0.000
    20        25.740       0.000        25.740       0.000

kpt = [0.188, 0.188, 0.062], weight = 0.047:
  Band      eig [eV]   occ [0-1]      eig [eV]   occ [0-1]
     0       -59.224       1.000       -59.224       1.000
     1       -59.060       1.000       -59.060       1.000
     2       -24.107       1.000       -24.107       1.000
     3       -23.891       1.000       -23.891       1.000
     4       -23.685       1.000       -23.685       1.000
     5       -23.536       1.000       -23.536       1.000
     6       -23.213       1.000       -23.213       1.000
     7       -23.101       1.000       -23.101       1.000
     8         6.716       1.000         6.716       1.000
     9         9.737       1.000         9.737       1.000
    10        10.119       1.000        10.119       1.000
    11        12.573       1.000        12.573       1.000
    12        12.919       1.000        12.919       1.000
    13        14.704       0.603        14.704       0.603
    14        15.283       0.000        15.283       0.000
    15        16.288       0.000        16.288       0.000
    16        16.575       0.000        16.575       0.000
    17        17.002       0.000        17.002       0.000
    18        19.714       0.000        19.714       0.000
    19        23.149       0.000        23.149       0.000
    20        24.477       0.000        24.477       0.000
(only showing first 3 out of 20 k-points)

No gap
No difference between direct/indirect transitions

Forces: [  # eV/Ang
  [   -0.0000,     0.0000,     0.0000],  # W  0
  [   -0.0000,    -0.0000,     0.0000]]  # W  1
---

timing:  # [seconds]
  Total:  10.133  # ━━━━━━━━━━━━━━━━━━━━━━━━━━━━━━━━━━━━━━━━━━━━━━━━━━━━━━━━━
  Init:    1.384  # ━━━━━━━━
  SCF:     8.647  # ━━━━━━━━━━━━━━━━━━━━━━━━━━━━━━━━━━━━━━━━━━━━━━━━╸
  Forces:  0.073  # ╸

Max RSS: 2941.820  # MiB
