  ___ ___ ___ _ _ _
 |   |   |_  | | | |
 | | | | | . | | | |
 |__ |  _|___|_____| - 25.7.0
 |___|_|

User:   root@autodl-container-cb134f97cf-3ebc7372
Date:   Fri May 15 21:55:49 2026
Arch:   x86_64
Pid:    926295
CWD:    /root/autodl-tmp/2d-defect-dast
Python: 3.10.20
gpaw:   /root/miniconda3/envs/gpaw-env/lib/python3.10/site-packages/gpaw
_gpaw:  /root/miniconda3/envs/gpaw-env/lib/python3.10/site-packages/
        _gpaw.cpython-310-x86_64-linux-gnu.so
ase:    /root/miniconda3/envs/gpaw-env/lib/python3.10/site-packages/ase (version 3.28.0)
numpy:  /root/miniconda3/envs/gpaw-env/lib/python3.10/site-packages/numpy (version 2.2.6)
scipy:  /root/miniconda3/envs/gpaw-env/lib/python3.10/site-packages/scipy (version 1.15.2)
libxc:  7.0.0
units:  Angstrom and eV
cores: 1
OpenMP: False
OMP_NUM_THREADS: 1

input parameters:
  mode=PW(ecut=500.0),
  kpts=MonkhorstPack(size=array([5, 5, 1])),
  occupations=Occupations(name='fermi-dirac', width=0.05, fixmagmom=False),
  parallel={'gpu': True},
  spinpol=False,
  xc=XC(name='PBE')

environment variables:
  GPAW_CPUPY=False,
  GPAW_MPI4PY=False,
  GPAW_NEW=True,
  GPAW_NO_C_EXTENSION=False,
  GPAW_TRACE=False,
  GPAW_USE_GPUS=True

Diagonalizing LCAO Hamiltonian
Converting LCAO to grid
                                                             
                                                             
                                                             
                                                             
            C   C C   C C   C C   C C   C                    
              C  C  C  C  C  C  C   C C   C                  
                   C     C     C     C     C                 
                C     C     C     C     C                    
                 C   C C   C  C  C  C  C  C  C               
                   C   C C   C C   C C   C C   C             
                                                             
                                                             
                                                             
                                                             

Atomic positions and initial magnetic moments

Positions:
   0 C      0.000000    0.000000   15.000000    ( 0.0000,  0.0000,  0.0000)
   1 C      1.230000    0.710141   15.000000    ( 0.0000,  0.0000,  0.0000)
   2 C     -1.230000    2.130422   15.000000    ( 0.0000,  0.0000,  0.0000)
   3 C      0.000000    2.840563   15.000000    ( 0.0000,  0.0000,  0.0000)
   4 C     -2.460000    4.260845   15.000000    ( 0.0000,  0.0000,  0.0000)
   5 C     -1.230000    4.970986   15.000000    ( 0.0000,  0.0000,  0.0000)
   6 C     -3.690000    6.391267   15.000000    ( 0.0000,  0.0000,  0.0000)
   7 C     -2.460000    7.101408   15.000000    ( 0.0000,  0.0000,  0.0000)
   8 C     -4.920000    8.521690   15.000000    ( 0.0000,  0.0000,  0.0000)
   9 C     -3.690000    9.231831   15.000000    ( 0.0000,  0.0000,  0.0000)
  10 C      2.460000    0.000000   15.000000    ( 0.0000,  0.0000,  0.0000)
  11 C      3.690000    0.710141   15.000000    ( 0.0000,  0.0000,  0.0000)
  12 C      1.230000    2.130422   15.000000    ( 0.0000,  0.0000,  0.0000)
  13 C      2.460000    2.840563   15.000000    ( 0.0000,  0.0000,  0.0000)
  14 C      0.000000    4.260845   15.000000    ( 0.0000,  0.0000,  0.0000)
  15 C      1.230000    4.970986   15.000000    ( 0.0000,  0.0000,  0.0000)
  16 C     -1.230000    6.391267   15.000000    ( 0.0000,  0.0000,  0.0000)
  17 C      0.000000    7.101408   15.000000    ( 0.0000,  0.0000,  0.0000)
  18 C     -2.460000    8.521690   15.000000    ( 0.0000,  0.0000,  0.0000)
  19 C     -1.230000    9.231831   15.000000    ( 0.0000,  0.0000,  0.0000)
  20 C      4.920000    0.000000   15.000000    ( 0.0000,  0.0000,  0.0000)
  21 C      6.150000    0.710141   15.000000    ( 0.0000,  0.0000,  0.0000)
  22 C      3.690000    2.130422   15.000000    ( 0.0000,  0.0000,  0.0000)
  23 C      4.920000    2.840563   15.000000    ( 0.0000,  0.0000,  0.0000)
  24 C      2.460000    4.260845   15.000000    ( 0.0000,  0.0000,  0.0000)
  25 C      3.690000    4.970986   15.000000    ( 0.0000,  0.0000,  0.0000)
  26 C      1.230000    6.391267   15.000000    ( 0.0000,  0.0000,  0.0000)
  27 C      2.460000    7.101408   15.000000    ( 0.0000,  0.0000,  0.0000)
  28 C      0.000000    8.521690   15.000000    ( 0.0000,  0.0000,  0.0000)
  29 C      1.230000    9.231831   15.000000    ( 0.0000,  0.0000,  0.0000)
  30 C      7.380000    0.000000   15.000000    ( 0.0000,  0.0000,  0.0000)
  31 C      8.610000    0.710141   15.000000    ( 0.0000,  0.0000,  0.0000)
  32 C      6.150000    2.130422   15.000000    ( 0.0000,  0.0000,  0.0000)
  33 C      7.380000    2.840563   15.000000    ( 0.0000,  0.0000,  0.0000)
  34 C      4.920000    4.260845   15.000000    ( 0.0000,  0.0000,  0.0000)
  35 C      6.150000    4.970986   15.000000    ( 0.0000,  0.0000,  0.0000)
  36 C      3.690000    6.391267   15.000000    ( 0.0000,  0.0000,  0.0000)
  37 C      4.920000    7.101408   15.000000    ( 0.0000,  0.0000,  0.0000)
  38 C      2.460000    8.521690   15.000000    ( 0.0000,  0.0000,  0.0000)
  39 C      3.690000    9.231831   15.000000    ( 0.0000,  0.0000,  0.0000)
  40 C      9.840000    0.000000   15.000000    ( 0.0000,  0.0000,  0.0000)
  41 C     11.070000    0.710141   15.000000    ( 0.0000,  0.0000,  0.0000)
  42 C      8.610000    2.130422   15.000000    ( 0.0000,  0.0000,  0.0000)
  43 C      9.840000    2.840563   15.000000    ( 0.0000,  0.0000,  0.0000)
  44 C      7.380000    4.260845   15.000000    ( 0.0000,  0.0000,  0.0000)
  45 C      8.610000    4.970986   15.000000    ( 0.0000,  0.0000,  0.0000)
  46 C      6.150000    6.391267   15.000000    ( 0.0000,  0.0000,  0.0000)
  47 C      7.380000    7.101408   15.000000    ( 0.0000,  0.0000,  0.0000)
  48 C      4.920000    8.521690   15.000000    ( 0.0000,  0.0000,  0.0000)
  49 C      6.150000    9.231831   15.000000    ( 0.0000,  0.0000,  0.0000)

Unit cell:
           periodic     x           y           z      points  spacing
  1. axis:    yes   12.300000    0.000000    0.000000    64     0.1664
  2. axis:    yes   -6.150000   10.652112    0.000000    64     0.1664
  3. axis:    no     0.000000   -0.000000   30.000000   160     0.1875

  Lengths:  12.300000  12.300000  30.000000
  Angles:   90.000000  90.000000 120.000000

Effective grid spacing dv^(1/3) = 0.1817

symmetry:
  number of symmetries: 12
  rotations: [
    [[ 1,  1,  0], [ 0, -1,  0], [ 0,  0,  1]],
    [[ 1,  1,  0], [ 0, -1,  0], [ 0,  0, -1]],
    [[ 1,  0,  0], [ 0,  1,  0], [ 0,  0,  1]],
    [[ 1,  0,  0], [ 0,  1,  0], [ 0,  0, -1]],
    [[ 0,  1,  0], [-1, -1,  0], [ 0,  0,  1]],
    [[ 0,  1,  0], [-1, -1,  0], [ 0,  0, -1]],
    [[ 0, -1,  0], [-1,  0,  0], [ 0,  0,  1]],
    [[ 0, -1,  0], [-1,  0,  0], [ 0,  0, -1]],
    [[-1,  0,  0], [ 1,  1,  0], [ 0,  0,  1]],
    [[-1,  0,  0], [ 1,  1,  0], [ 0,  0, -1]],
    [[-1, -1,  0], [ 1,  0,  0], [ 0,  0,  1]],
    [[-1, -1,  0], [ 1,  0,  0], [ 0,  0, -1]]]

bz sampling:
  number of bz points: 25
  number of ibz points: 5
  monkhorst-pack size: [5, 5, 1]
  monkhorst-pack shift: [0, 0, 0]
  points and weights: [
    [[  0.00000000,   0.00000000,   0.00000000], 0.04000000],  # 0
    [[  0.20000000,   0.00000000,   0.00000000], 0.24000000],  # 1
    [[  0.40000000,  -0.20000000,   0.00000000], 0.24000000],  # 2
    [[  0.40000000,   0.00000000,   0.00000000], 0.24000000],  # 3
    [[  0.40000000,   0.40000000,   0.00000000], 0.24000000]]  # 4

plane wave coefficients: 99877
cutoff: 500.0 eV

spin-components: 1  # (collinear spins)
bands: 124
spin-degeneracy: 2
dtype: complex128

memory:
    storage: GPU
    wave functions: 990_779_840  # bytes  (990_779_840 per core)

parallelization:
    kpt:    1
    domain: 1
    band:   1

density:
  valence electrons: 200.0
  components: 1
  grid points: [ 64  64 160]
  charge: 0.0  # |e|

potential:
  grid points: [ 64  64 160]

species:
  C:
    name: Carbon
    id: 4aa54d4b901d75f77cc0ea3eec22967b
    Z: 6.0
    valence: 4
    core: 2
    charge: 0.0
    file: /root/miniconda3/envs/gpaw-env/lib/python3.10/site-packages/gpaw_data/setups/C.PBE.gz
    compensation charges: {type: gauss,
                           rc: 0.20,
                           lmax: 2}
    cutoffs: {filter: 1.14,
              core: 1.14}
    projectors:
      #              energy  rcut
      - 2s(2.00)   -13.751   0.635
      - 2p(2.00)    -5.284   0.635
      -  s          13.461   0.635
      -  p          21.927   0.635
      -  d           0.000   0.635
  
    # Using partial waves for C as LCAO basis

Reference energy: -51381.405774  # eV

eigensolver:
  {'converge_bands': 'occupied', 'name': 'Davidson', 'niter': 2}
Density mixing:
  Method: separate
  Backend: pulay
  Linear mixing parameter: 0.05
  old densities: 5
  Damping of long wavelength oscillations: 50
occupation numbers:
  Fermi-Dirac:
    width: 0.0500  # eV
  

<gpaw.new.pw.paw_poisson.SlowPAWPoissonSolver object at 0x7fca1825e170>
xc functional:
  name: PBE with 2 nearest neighbor stencil

convergence criteria:
- Maximum [total energy] change in last 3 cyles: 0.0005 eV / valence electron
- Maximum integral of absolute [dens]ity change: 0.0001 electrons / valence electron
- Maximum integral of absolute [eigenst]ate change: 4e-08 eV^2 / valence electron
maximum number of iterations: 333

     iter     time        total  log10-change:
                         energy   eigst   dens
iter:   1 21:56:00  -478.524187   +1.11
iter:   2 21:56:03  -482.785265   -0.16  -0.82
iter:   3 21:56:06  -526.767110   -0.58  -0.82
iter:   4 21:56:09  -474.870711   -0.05  -0.61
iter:   5 21:56:12  -475.800857   -1.38  -0.99
iter:   6 21:56:15  -464.496578   -1.54  -0.96
iter:   7 21:56:18  -461.075643   -1.63  -1.24
iter:   8 21:56:21  -460.865300   -2.52  -1.75
iter:   9 21:56:24  -460.811530   -3.14  -2.00
iter:  10 21:56:27  -460.818783c  -4.13  -2.27
iter:  11 21:56:30  -460.793702c  -3.22  -2.24
iter:  12 21:56:32  -460.788945c  -4.28  -2.71
iter:  13 21:56:35  -460.785294c  -4.68  -2.78
iter:  14 21:56:38  -460.785132c  -5.24  -2.99
iter:  15 21:56:41  -460.785087c  -5.80  -3.21
iter:  16 21:56:44  -460.785105c  -6.44  -3.35
iter:  17 21:56:47  -460.785055c  -6.45  -3.68
iter:  18 21:56:50  -460.785056c  -7.23  -3.79
iter:  19 21:56:53  -460.785067c  -7.20  -3.82
iter:  20 21:56:56  -460.785062c  -7.58c -4.03c
Converged in 20 steps
Energy contributions relative to reference atoms: (reference = -51381.405774)

kinetic:         447.609406
coulomb:        -458.473561
zero:              0.479686
external:          0.000000
xc:             -450.400505
entropy:          -0.000177
spinorbit:         0.000000
----------------------------
Free energy:    -460.785150
Extrapolated:   -460.785062

dipole moment: [-38.040944, -118.477183, 0.000340]  # |e|*Ang


Fermi level: -3.057

kpt = [0.000, 0.000, 0.000], weight = 0.040:
  Band      eig [eV]   occ [0-2]
     0       -22.641       2.000
   ...
    92        -6.104       2.000
    93        -6.104       2.000
    94        -4.566       2.000
    95        -4.566       2.000
    96        -4.565       2.000
    97        -4.565       2.000
    98        -4.565       2.000
    99        -4.565       2.000
   100        -1.750       0.000
   101        -1.750       0.000
   102        -1.750       0.000
   103        -1.750       0.000
   104        -1.750       0.000
   105        -1.750       0.000
   106         0.123       0.000
   107         0.123       0.000
   ...
   123         1.877       0.000

kpt = [0.200, 0.000, 0.000], weight = 0.240:
  Band      eig [eV]   occ [0-2]
     0       -22.603       2.000
   ...
    92        -6.187       2.000
    93        -5.920       2.000
    94        -4.944       2.000
    95        -4.944       2.000
    96        -4.836       2.000
    97        -4.836       2.000
    98        -4.271       2.000
    99        -4.271       2.000
   100        -1.930       0.000
   101        -1.930       0.000
   102        -1.495       0.000
   103        -1.495       0.000
   104        -1.447       0.000
   105        -1.447       0.000
   106        -0.750       0.000
   107        -0.351       0.000
   ...
   123         1.785       0.000

kpt = [0.400, -0.200, 0.000], weight = 0.240:
  Band      eig [eV]   occ [0-2]
     0       -22.527       2.000
   ...
    92        -5.631       2.000
    93        -5.631       2.000
    94        -5.398       2.000
    95        -5.398       2.000
    96        -5.117       2.000
    97        -4.783       2.000
    98        -4.783       2.000
    99        -3.745       2.000
   100        -2.392       0.000
   101        -1.467       0.000
   102        -1.380       0.000
   103        -1.380       0.000
   104        -1.086       0.000
   105        -1.086       0.000
   106        -0.955       0.000
   107        -0.955       0.000
   ...
   123         1.725       0.000
(only showing first 3 out of 5 k-points)

Gap: 0.778 eV
Transition (v -> c):
  (s=0, k=4, n=99, [0.40, 0.40, 0.00]) -> (s=0, k=4, n=100, [0.40, 0.40, 0.00])
No difference between direct/indirect transitions
vacuum-level: 1.172  # V

Forces: [  # eV/Ang
  [    0.0000,    -0.0000,     0.0000],  # C  0
  [   -0.0010,    -0.0006,     0.0000],  # C  1
  [   -0.0001,     0.0002,     0.0000],  # C  2
  [   -0.0000,    -0.0009,     0.0000],  # C  3
  [    0.0005,    -0.0009,     0.0000],  # C  4
  [   -0.0002,     0.0001,     0.0000],  # C  5
  [   -0.0006,     0.0009,     0.0000],  # C  6
  [   -0.0001,    -0.0003,     0.0000],  # C  7
  [    0.0002,    -0.0002,     0.0000],  # C  8
  [   -0.0008,     0.0004,     0.0000],  # C  9
  [    0.0002,    -0.0001,     0.0000],  # C  10
  [   -0.0004,    -0.0002,     0.0000],  # C  11
  [    0.0001,     0.0002,     0.0000],  # C  12
  [   -0.0004,    -0.0003,     0.0000],  # C  13
  [    0.0000,    -0.0005,     0.0000],  # C  14
  [    0.0002,     0.0001,     0.0000],  # C  15
  [    0.0008,     0.0005,     0.0000],  # C  16
  [   -0.0000,     0.0000,     0.0000],  # C  17
  [   -0.0004,     0.0002,     0.0000],  # C  18
  [    0.0002,     0.0002,     0.0000],  # C  19
  [   -0.0011,     0.0000,     0.0000],  # C  20
  [   -0.0000,    -0.0008,     0.0000],  # C  21
  [   -0.0004,    -0.0002,     0.0000],  # C  22
  [   -0.0007,    -0.0004,     0.0000],  # C  23
  [   -0.0005,    -0.0009,     0.0000],  # C  24
  [   -0.0007,     0.0004,     0.0000],  # C  25
  [   -0.0008,     0.0005,     0.0000],  # C  26
  [    0.0001,    -0.0003,     0.0000],  # C  27
  [    0.0000,    -0.0009,     0.0000],  # C  28
  [   -0.0002,     0.0002,     0.0000],  # C  29
  [    0.0011,     0.0000,     0.0000],  # C  30
  [    0.0004,    -0.0002,     0.0000],  # C  31
  [    0.0000,     0.0007,     0.0000],  # C  32
  [    0.0007,    -0.0004,     0.0000],  # C  33
  [    0.0006,    -0.0004,     0.0000],  # C  34
  [   -0.0000,     0.0008,     0.0000],  # C  35
  [    0.0006,     0.0009,     0.0000],  # C  36
  [    0.0000,     0.0005,     0.0000],  # C  37
  [    0.0004,     0.0002,     0.0000],  # C  38
  [    0.0008,     0.0004,     0.0000],  # C  39
  [   -0.0002,    -0.0001,     0.0000],  # C  40
  [    0.0010,    -0.0006,     0.0000],  # C  41
  [    0.0004,    -0.0002,     0.0000],  # C  42
  [    0.0004,    -0.0003,     0.0000],  # C  43
  [   -0.0006,    -0.0004,     0.0000],  # C  44
  [    0.0007,     0.0004,     0.0000],  # C  45
  [    0.0000,     0.0004,     0.0000],  # C  46
  [   -0.0000,     0.0005,     0.0000],  # C  47
  [   -0.0002,    -0.0002,     0.0000],  # C  48
  [   -0.0000,     0.0011,     0.0000]]  # C  49
---

timing:  # [seconds]
  Total:  745.186  # ━━━━━━━━━━━━━━━━━━━━━━━━━━━━━━━━━━━━━━━━━━━━━━━━━━━━━━━━
  Init:     6.438  # ╸
  SCF:     60.307  # ━━━━╸
  Forces:   1.107  # 

Max RSS: 2157.457  # MiB
