  ___ ___ ___ _ _ _
 |   |   |_  | | | |
 | | | | | . | | | |
 |__ |  _|___|_____| - 25.7.0
 |___|_|

User:   root@autodl-container-cb134f97cf-3ebc7372
Date:   Fri May 15 15:40:10 2026
Arch:   x86_64
Pid:    322332
CWD:    /root/autodl-tmp/2d-defect-dast
Python: 3.10.20
gpaw:   /root/miniconda3/envs/gpaw-env/lib/python3.10/site-packages/gpaw
_gpaw:  /root/miniconda3/envs/gpaw-env/lib/python3.10/site-packages/
        _gpaw.cpython-310-x86_64-linux-gnu.so
ase:    /root/miniconda3/envs/gpaw-env/lib/python3.10/site-packages/ase (version 3.28.0)
numpy:  /root/miniconda3/envs/gpaw-env/lib/python3.10/site-packages/numpy (version 2.2.6)
scipy:  /root/miniconda3/envs/gpaw-env/lib/python3.10/site-packages/scipy (version 1.15.2)
libxc:  7.0.0
units:  Angstrom and eV
cores: 1
OpenMP: False
OMP_NUM_THREADS: 1

input parameters:
  mode=PW(ecut=400.0),
  kpts=MonkhorstPack(size=array([1, 1, 1])),
  xc=XC(name='PBE')

environment variables:
  GPAW_CPUPY=False,
  GPAW_MPI4PY=False,
  GPAW_NEW=True,
  GPAW_NO_C_EXTENSION=False,
  GPAW_TRACE=False,
  GPAW_USE_GPUS=True
---

timing:  # [seconds]
  Total: 0.453  # ━━━━━━━━━━━━━━━━━━━━━━━━━━━━━━━━━━━━━━━━━━━━━━━━━━━━━━━━━━━
  Init:  0.406  # ━━━━━━━━━━━━━━━━━━━━━━━━━━━━━━━━━━━━━━━━━━━━━━━━━━━━━

Max RSS: 837.777  # MiB
