--------------------------------------------------------------------------
WARNING: Open MPI tried to bind a process but failed.  This is a
warning only; your job will continue, though performance may
be degraded.

  Local host:        3253031b5b37
  Application name:  /root/qe-7.3.1/bin/pw.x
  Error message:     failed to bind memory
  Location:          ../../../../../orte/mca/rtc/hwloc/rtc_hwloc.c:447

--------------------------------------------------------------------------

     Program PWSCF v.7.3.1 starts on  6May2026 at  8:10:27 

     This program is part of the open-source Quantum ESPRESSO suite
     for quantum simulation of materials; please cite
         "P. Giannozzi et al., J. Phys.:Condens. Matter 21 395502 (2009);
         "P. Giannozzi et al., J. Phys.:Condens. Matter 29 465901 (2017);
         "P. Giannozzi et al., J. Chem. Phys. 152 154105 (2020);
          URL http://www.quantum-espresso.org", 
     in publications or presentations arising from this work. More details at
     http://www.quantum-espresso.org/quote

     Parallel version (MPI & OpenMP), running on       8 processor cores
     Number of MPI processes:                 1
     Threads/MPI process:                     8

     MPI processes distributed on     1 nodes
     89358 MiB available memory on the printing compute node when the environment starts
 
     Reading input from atom_Te.in

     Current dimensions of program PWSCF are:
     Max number of different atomic species (ntypx) = 10
     Max number of k-points (npk) =  40000
     Max angular momentum in pseudopotentials (lmaxx) =  4
     file Te.UPF: wavefunction(s)  5S 5P renormalized
     Message from routine setup:
     using ibrav=0 with symmetry is DISCOURAGED, use correct ibrav instead
 
     Subspace diagonalization in iterative solution of the eigenvalue problem:
     a serial algorithm will be used

 
     G-vector sticks info
     --------------------
     sticks:   dense  smooth     PW     G-vecs:    dense   smooth      PW
     Sum       11513    7685   1917               929121   505887   63077
 
     Using Slab Decomposition
 


     bravais-lattice index     =            0
     lattice parameter (alat)  =      28.3459  a.u.
     unit-cell volume          =   22775.6289 (a.u.)^3
     number of atoms/cell      =            1
     number of atomic types    =            1
     number of electrons       =         6.00
     number of Kohn-Sham states=            7
     kinetic-energy cutoff     =      30.0000  Ry
     charge density cutoff     =     180.0000  Ry
     scf convergence threshold =      1.0E-07
     mixing beta               =       0.4000
     number of iterations used =            8  plain     mixing
     Exchange-correlation= SLA  PW   PBX  PBC
                           (   1   4   3   4   0   0   0)

     GPU acceleration is ACTIVE.  1 visible GPUs per MPI rank


     celldm(1)=  28.345892  celldm(2)=   0.000000  celldm(3)=   0.000000
     celldm(4)=   0.000000  celldm(5)=   0.000000  celldm(6)=   0.000000

     crystal axes: (cart. coord. in units of alat)
               a(1) = (   1.000000   0.000000   0.000000 )  
               a(2) = (   0.000000   1.000000   0.000000 )  
               a(3) = (   0.000000   0.000000   1.000000 )  

     reciprocal axes: (cart. coord. in units 2 pi/alat)
               b(1) = (  1.000000  0.000000  0.000000 )  
               b(2) = (  0.000000  1.000000  0.000000 )  
               b(3) = (  0.000000  0.000000  1.000000 )  


     PseudoPot. # 1 for Te read from file:
     /root/qe_pseudos/Te.UPF
     MD5 check sum: 66247bff2bd9dbf220fbb0bf5ab56e9d
     Pseudo is Projector augmented-wave + core cor, Zval =  6.0
     Generated using &quot;atomic&quot; code by A. Dal Corso  v.6.3
     Shape of augmentation charge: PSQ
     Using radial grid of 1245 points,  6 beta functions with: 
                l(1) =   0
                l(2) =   0
                l(3) =   1
                l(4) =   1
                l(5) =   2
                l(6) =   2
     Q(r) pseudized with 0 coefficients 


     atomic species   valence    mass     pseudopotential
     Te                6.00   127.60000     Te( 1.00)

     Starting magnetic structure 
     atomic species   magnetization
     Te              0.500

     48 Sym. Ops., with inversion, found



   Cartesian axes

     site n.     atom                  positions (alat units)
         1        Te     tau(   1) = (   0.5000000   0.5000000   0.5000000  )

     number of k points=     1  Methfessel-Paxton smearing, width (Ry)=  0.0100
                       cart. coord. in units 2pi/alat
        k(    1) = (   0.0000000   0.0000000   0.0000000), wk =   1.0000000

     Dense  grid:   929121 G-vectors     FFT dimensions: ( 125, 125, 125)

     Smooth grid:   505887 G-vectors     FFT dimensions: ( 100, 100, 100)

     Estimated max dynamical RAM per process >       3.70 GB
     Generating pointlists ...
     new r_m :   0.4125 (alat units) 11.6927 (a.u.) for type    1

     Initial potential from superposition of free atoms

     starting charge       5.9998, renormalised to       6.0000

     negative rho (up, down):  8.164E-04 2.721E-04
     Starting wfcs are    4 randomized atomic wfcs +    3 random wfcs
     Checking if some PAW data can be deallocated... 

     total cpu time spent up to now is       12.1 secs

     Self-consistent Calculation

     iteration #  1     ecut=    30.00 Ry     beta= 0.40
     Davidson diagonalization with overlap
     ethr =  1.00E-02,  avg # of iterations =  6.5

     Threshold (ethr) on eigenvalues was too large:
     Diagonalizing with lowered threshold

     Davidson diagonalization with overlap
     ethr =  5.28E-05,  avg # of iterations = 13.5

     negative rho (up, down):  7.440E-04 3.515E-04

     total cpu time spent up to now is       15.1 secs

     total energy              =    -362.42264746 Ry
     estimated scf accuracy    <       0.00315694 Ry

     total magnetization       =     2.00 Bohr mag/cell
     absolute magnetization    =     2.00 Bohr mag/cell

     iteration #  2     ecut=    30.00 Ry     beta= 0.40
     Davidson diagonalization with overlap
     ethr =  5.26E-05,  avg # of iterations =  1.5

     negative rho (up, down):  7.097E-04 3.896E-04

     total cpu time spent up to now is       17.3 secs

     total energy              =    -362.42712895 Ry
     estimated scf accuracy    <       0.00112067 Ry

     total magnetization       =     2.00 Bohr mag/cell
     absolute magnetization    =     2.00 Bohr mag/cell

     iteration #  3     ecut=    30.00 Ry     beta= 0.40
     Davidson diagonalization with overlap
     ethr =  1.87E-05,  avg # of iterations =  7.5

     negative rho (up, down):  6.693E-04 4.224E-04

     total cpu time spent up to now is       20.3 secs

     total energy              =    -362.42734488 Ry
     estimated scf accuracy    <       0.00006414 Ry

     total magnetization       =     2.00 Bohr mag/cell
     absolute magnetization    =     2.00 Bohr mag/cell

     iteration #  4     ecut=    30.00 Ry     beta= 0.40
     Davidson diagonalization with overlap
     ethr =  1.07E-06,  avg # of iterations = 13.0

     negative rho (up, down):  6.474E-04 4.442E-04

     total cpu time spent up to now is       23.1 secs

     total energy              =    -362.42737025 Ry
     estimated scf accuracy    <       0.00001175 Ry

     total magnetization       =     2.00 Bohr mag/cell
     absolute magnetization    =     2.00 Bohr mag/cell

     iteration #  5     ecut=    30.00 Ry     beta= 0.40
     Davidson diagonalization with overlap
     ethr =  1.96E-07,  avg # of iterations =  2.0

     negative rho (up, down):  6.319E-04 4.599E-04

     total cpu time spent up to now is       25.3 secs

     total energy              =    -362.42737212 Ry
     estimated scf accuracy    <       0.00000088 Ry

     total magnetization       =     2.00 Bohr mag/cell
     absolute magnetization    =     2.00 Bohr mag/cell

     iteration #  6     ecut=    30.00 Ry     beta= 0.40
     Davidson diagonalization with overlap
     ethr =  1.47E-08,  avg # of iterations =  3.0

     negative rho (up, down):  6.251E-04 4.677E-04

     total cpu time spent up to now is       27.2 secs

     total energy              =    -362.42737243 Ry
     estimated scf accuracy    <       0.00000268 Ry

     total magnetization       =     2.00 Bohr mag/cell
     absolute magnetization    =     2.00 Bohr mag/cell

     iteration #  7     ecut=    30.00 Ry     beta= 0.40
     Davidson diagonalization with overlap
     ethr =  1.47E-08,  avg # of iterations =  2.0

     negative rho (up, down):  6.217E-04 4.722E-04

     total cpu time spent up to now is       29.3 secs

     total energy              =    -362.42737238 Ry
     estimated scf accuracy    <       0.00000030 Ry

     total magnetization       =     2.00 Bohr mag/cell
     absolute magnetization    =     2.00 Bohr mag/cell

     iteration #  8     ecut=    30.00 Ry     beta= 0.40
     Davidson diagonalization with overlap
     ethr =  5.05E-09,  avg # of iterations =  2.0

     negative rho (up, down):  6.166E-04 4.795E-04
 
     Magnetic moment per site  (integrated on atomic sphere of radius R)
     atom   1 (R=0.413)  charge=  6.0000  magn=  2.0000

     total cpu time spent up to now is       31.0 secs

     End of self-consistent calculation

 ------ SPIN UP ------------


          k = 0.0000 0.0000 0.0000 ( 63077 PWs)   bands (ev):

   -15.4921  -6.3577  -6.3577  -6.3577  -0.5891   0.1042   0.3236

 ------ SPIN DOWN ----------


          k = 0.0000 0.0000 0.0000 ( 63077 PWs)   bands (ev):

   -14.2761  -5.0986  -5.0986  -5.0986  -0.4004   0.2090   0.4016

     the Fermi energy is    -5.1260 ev

!    total energy              =    -362.42737249 Ry
     total all-electron energy =    -13589.018947 Ry
     estimated scf accuracy    <          5.8E-10 Ry
     smearing contrib. (-TS)   =      -0.00373359 Ry
     internal energy E=F+TS    =    -362.42363890 Ry

     The total energy is F=E-TS. E is the sum of the following terms:
     one-electron contribution =     -17.37568893 Ry
     hartree contribution      =       9.65436978 Ry
     xc contribution           =     -16.35578194 Ry
     ewald contribution        =      -3.60343966 Ry
     one-center paw contrib.   =    -334.74309817 Ry

     total magnetization       =     2.00 Bohr mag/cell
     absolute magnetization    =     2.00 Bohr mag/cell

     convergence has been achieved in   8 iterations

     negative rho (up, down):  6.166E-04 4.795E-04

     Forces acting on atoms (cartesian axes, Ry/au):

     atom    1 type  1   force =     0.00000000    0.00000000    0.00000000

     Total force =     0.000000     Total SCF correction =     0.000000


     Computing stress (Cartesian axis) and pressure


     negative rho (up, down):  6.166E-04 4.795E-04
          total   stress  (Ry/bohr**3)                   (kbar)     P=       -0.00
  -0.00000003   0.00000000   0.00000000           -0.00        0.00        0.00
   0.00000000  -0.00000003   0.00000000            0.00       -0.00        0.00
   0.00000000   0.00000000  -0.00000003            0.00        0.00       -0.00


     Writing all to output data dir /root/qe_scratch/atom_Te.save/ :
     XML data file, charge density, pseudopotentials, collected wavefunctions
 
     init_run     :      8.86s CPU     11.79s WALL (       1 calls)
     electrons    :     17.03s CPU     18.92s WALL (       1 calls)
     forces       :      0.17s CPU      0.21s WALL (       1 calls)
     stress       :      0.38s CPU      0.40s WALL (       1 calls)

     Called by init_run:
     wfcinit      :      0.14s CPU      0.32s WALL (       1 calls)
     potinit      :      7.69s CPU     10.14s WALL (       1 calls)
     hinit0       :      0.33s CPU      0.42s WALL (       1 calls)

     Called by electrons:
     c_bands      :      3.41s CPU      3.41s WALL (       9 calls)
     sum_band     :      1.60s CPU      1.62s WALL (       9 calls)
     v_of_rho     :      0.99s CPU      1.25s WALL (       9 calls)
     newd         :      0.29s CPU      0.37s WALL (       9 calls)
                                        0.37s GPU  (       9 calls)
     PAW_pot      :      8.20s CPU      9.46s WALL (       9 calls)
     mix_rho      :      0.89s CPU      0.99s WALL (       9 calls)

     Called by c_bands:
     init_us_2    :      0.01s CPU      0.01s WALL (      42 calls)
     cegterg      :      3.31s CPU      3.31s WALL (      18 calls)

     Called by *egterg:
     cdiaghg      :      0.08s CPU      0.10s WALL (     118 calls)
                                        0.10s GPU  (     118 calls)
     h_psi        :      0.32s CPU      0.48s WALL (     122 calls)
                                        0.48s GPU  (     122 calls)
     s_psi        :      0.01s CPU      0.01s WALL (     122 calls)
     g_psi        :      0.00s CPU      0.00s WALL (     102 calls)
                                        0.00s GPU  (     102 calls)

     Called by h_psi:
     h_psi:calbec :      0.09s CPU      0.29s WALL (     122 calls)
                                        0.29s GPU  (     122 calls)
     vloc_psi     :      0.15s CPU      0.15s WALL (     122 calls)
                                        0.15s GPU  (     122 calls)
     add_vuspsi   :      0.01s CPU      0.02s WALL (     122 calls)
                                        0.02s GPU  (     122 calls)

     General routines
     calbec       :      0.09s CPU      0.25s WALL (     150 calls)
     fft          :      5.82s CPU      7.70s WALL (     265 calls)
                                        0.07s GPU  (     247 calls)
     ffts         :      2.45s CPU      3.15s WALL (      36 calls)
                                        0.00s GPU  (      18 calls)
     fftw         :      0.01s CPU      0.13s WALL (     262 calls)
                                        0.13s GPU  (     262 calls)
     interpolate  :      8.52s CPU     11.09s WALL (      18 calls)
 
     Parallel routines
 
     PWSCF        :     26.97s CPU     32.02s WALL

 
   This run was terminated on:   8:10:59   6May2026            

=------------------------------------------------------------------------------=
   JOB DONE.
=------------------------------------------------------------------------------=
Warning: ieee_invalid is signaling
Warning: ieee_divide_by_zero is signaling
Warning: ieee_inexact is signaling
FORTRAN STOP
