--------------------------------------------------------------------------
WARNING: Open MPI tried to bind a process but failed.  This is a
warning only; your job will continue, though performance may
be degraded.

  Local host:        3253031b5b37
  Application name:  /root/qe-7.3.1/bin/pw.x
  Error message:     failed to bind memory
  Location:          ../../../../../orte/mca/rtc/hwloc/rtc_hwloc.c:447

--------------------------------------------------------------------------

     Program PWSCF v.7.3.1 starts on  6May2026 at  8: 3:41 

     This program is part of the open-source Quantum ESPRESSO suite
     for quantum simulation of materials; please cite
         "P. Giannozzi et al., J. Phys.:Condens. Matter 21 395502 (2009);
         "P. Giannozzi et al., J. Phys.:Condens. Matter 29 465901 (2017);
         "P. Giannozzi et al., J. Chem. Phys. 152 154105 (2020);
          URL http://www.quantum-espresso.org", 
     in publications or presentations arising from this work. More details at
     http://www.quantum-espresso.org/quote

     Parallel version (MPI & OpenMP), running on       8 processor cores
     Number of MPI processes:                 1
     Threads/MPI process:                     8

     MPI processes distributed on     1 nodes
     89911 MiB available memory on the printing compute node when the environment starts
 
     Reading input from atom_Pd.in

     Current dimensions of program PWSCF are:
     Max number of different atomic species (ntypx) = 10
     Max number of k-points (npk) =  40000
     Max angular momentum in pseudopotentials (lmaxx) =  4
     file Pd.UPF: wavefunction(s)  5S 4D renormalized
     Message from routine setup:
     using ibrav=0 with symmetry is DISCOURAGED, use correct ibrav instead
 
     Subspace diagonalization in iterative solution of the eigenvalue problem:
     a serial algorithm will be used

 
     G-vector sticks info
     --------------------
     sticks:   dense  smooth     PW     G-vecs:    dense   smooth      PW
     Sum       11513    7685   1917               929121   505887   63077
 
     Using Slab Decomposition
 


     bravais-lattice index     =            0
     lattice parameter (alat)  =      28.3459  a.u.
     unit-cell volume          =   22775.6289 (a.u.)^3
     number of atoms/cell      =            1
     number of atomic types    =            1
     number of electrons       =        10.00
     number of Kohn-Sham states=            9
     kinetic-energy cutoff     =      30.0000  Ry
     charge density cutoff     =     180.0000  Ry
     scf convergence threshold =      1.0E-07
     mixing beta               =       0.4000
     number of iterations used =            8  plain     mixing
     Exchange-correlation= SLA  PW   PBX  PBC
                           (   1   4   3   4   0   0   0)

     GPU acceleration is ACTIVE.  1 visible GPUs per MPI rank


     celldm(1)=  28.345892  celldm(2)=   0.000000  celldm(3)=   0.000000
     celldm(4)=   0.000000  celldm(5)=   0.000000  celldm(6)=   0.000000

     crystal axes: (cart. coord. in units of alat)
               a(1) = (   1.000000   0.000000   0.000000 )  
               a(2) = (   0.000000   1.000000   0.000000 )  
               a(3) = (   0.000000   0.000000   1.000000 )  

     reciprocal axes: (cart. coord. in units 2 pi/alat)
               b(1) = (  1.000000  0.000000  0.000000 )  
               b(2) = (  0.000000  1.000000  0.000000 )  
               b(3) = (  0.000000  0.000000  1.000000 )  


     PseudoPot. # 1 for Pd read from file:
     /root/qe_pseudos/Pd.UPF
     MD5 check sum: a1ee5d3c3f0c030a735988cf39041146
     Pseudo is Projector augmented-wave + core cor, Zval = 10.0
     Generated using &quot;atomic&quot; code by A. Dal Corso  v.6.3
     Shape of augmentation charge: PSQ
     Using radial grid of 1235 points,  6 beta functions with: 
                l(1) =   0
                l(2) =   0
                l(3) =   1
                l(4) =   1
                l(5) =   2
                l(6) =   2
     Q(r) pseudized with 0 coefficients 


     atomic species   valence    mass     pseudopotential
     Pd               10.00   106.42000     Pd( 1.00)

     Starting magnetic structure 
     atomic species   magnetization
     Pd              0.500

     48 Sym. Ops., with inversion, found



   Cartesian axes

     site n.     atom                  positions (alat units)
         1        Pd     tau(   1) = (   0.5000000   0.5000000   0.5000000  )

     number of k points=     1  Methfessel-Paxton smearing, width (Ry)=  0.0100
                       cart. coord. in units 2pi/alat
        k(    1) = (   0.0000000   0.0000000   0.0000000), wk =   1.0000000

     Dense  grid:   929121 G-vectors     FFT dimensions: ( 125, 125, 125)

     Smooth grid:   505887 G-vectors     FFT dimensions: ( 100, 100, 100)

     Estimated max dynamical RAM per process >       3.70 GB
     Generating pointlists ...
     new r_m :   0.4125 (alat units) 11.6927 (a.u.) for type    1

     Initial potential from superposition of free atoms

     starting charge       9.9994, renormalised to      10.0000

     negative rho (up, down):  2.233E-02 7.444E-03
     Starting wfcs are    9 randomized atomic wfcs
     Checking if some PAW data can be deallocated... 

     total cpu time spent up to now is       11.8 secs

     Self-consistent Calculation

     iteration #  1     ecut=    30.00 Ry     beta= 0.40
     Davidson diagonalization with overlap
     ethr =  1.00E-02,  avg # of iterations =  2.0
     Minimization algorithm failed to find Fermi energy: reverting to bisection
     Possible cause: smearing is larger than the electronic band-gap.

     negative rho (up, down):  2.038E-02 1.113E-02

     total cpu time spent up to now is       13.7 secs

     total energy              =    -330.68882462 Ry
     estimated scf accuracy    <       0.20582037 Ry

     total magnetization       =     0.98 Bohr mag/cell
     absolute magnetization    =     0.98 Bohr mag/cell

     iteration #  2     ecut=    30.00 Ry     beta= 0.40
     Davidson diagonalization with overlap
     ethr =  2.06E-03,  avg # of iterations =  1.0

     negative rho (up, down):  1.862E-02 1.234E-02

     total cpu time spent up to now is       15.5 secs

     total energy              =    -330.69674562 Ry
     estimated scf accuracy    <       0.08832814 Ry

     total magnetization       =     2.07 Bohr mag/cell
     absolute magnetization    =     2.08 Bohr mag/cell

     iteration #  3     ecut=    30.00 Ry     beta= 0.40
     Davidson diagonalization with overlap
     ethr =  8.83E-04,  avg # of iterations =  1.5

     negative rho (up, down):  1.842E-02 1.536E-02

     total cpu time spent up to now is       17.5 secs

     total energy              =    -330.78333916 Ry
     estimated scf accuracy    <       0.19753585 Ry

     total magnetization       =    -0.00 Bohr mag/cell
     absolute magnetization    =     0.09 Bohr mag/cell

     iteration #  4     ecut=    30.00 Ry     beta= 0.40
     Davidson diagonalization with overlap
     ethr =  8.83E-04,  avg # of iterations =  1.5

     negative rho (up, down):  2.467E-02 1.675E-02

     total cpu time spent up to now is       19.3 secs

     total energy              =    -330.77202041 Ry
     estimated scf accuracy    <       0.02430938 Ry

     total magnetization       =    -0.00 Bohr mag/cell
     absolute magnetization    =     0.04 Bohr mag/cell

     iteration #  5     ecut=    30.00 Ry     beta= 0.40
     Davidson diagonalization with overlap
     ethr =  2.43E-04,  avg # of iterations =  5.0

     negative rho (up, down):  1.948E-02 1.637E-02

     total cpu time spent up to now is       21.3 secs

     total energy              =    -330.88295679 Ry
     estimated scf accuracy    <       1.31655338 Ry

     total magnetization       =    -2.00 Bohr mag/cell
     absolute magnetization    =     2.03 Bohr mag/cell

     iteration #  6     ecut=    30.00 Ry     beta= 0.40
     Davidson diagonalization with overlap
     ethr =  2.43E-04,  avg # of iterations =  1.0

     negative rho (up, down):  1.691E-02 1.628E-02

     total cpu time spent up to now is       23.2 secs

     total energy              =    -330.86667388 Ry
     estimated scf accuracy    <       1.27125578 Ry

     total magnetization       =    -2.00 Bohr mag/cell
     absolute magnetization    =     2.03 Bohr mag/cell

     iteration #  7     ecut=    30.00 Ry     beta= 0.40
     Davidson diagonalization with overlap
     ethr =  2.43E-04,  avg # of iterations =  1.0

     negative rho (up, down):  1.712E-02 1.697E-02

     total cpu time spent up to now is       25.3 secs

     total energy              =    -330.81294331 Ry
     estimated scf accuracy    <       1.23509782 Ry

     total magnetization       =    -2.00 Bohr mag/cell
     absolute magnetization    =     2.04 Bohr mag/cell

     iteration #  8     ecut=    30.00 Ry     beta= 0.40
     Davidson diagonalization with overlap
     ethr =  2.43E-04,  avg # of iterations =  1.0

     negative rho (up, down):  1.340E-02 1.985E-02

     total cpu time spent up to now is       27.4 secs

     total energy              =    -330.85784486 Ry
     estimated scf accuracy    <       0.61062898 Ry

     total magnetization       =    -2.08 Bohr mag/cell
     absolute magnetization    =     2.09 Bohr mag/cell

     iteration #  9     ecut=    30.00 Ry     beta= 0.40
     Davidson diagonalization with overlap
     ethr =  2.43E-04,  avg # of iterations =  1.5

     negative rho (up, down):  1.496E-02 1.977E-02

     total cpu time spent up to now is       29.5 secs

     total energy              =    -330.90753363 Ry
     estimated scf accuracy    <       1.24894489 Ry

     total magnetization       =    -2.00 Bohr mag/cell
     absolute magnetization    =     2.03 Bohr mag/cell

     iteration # 10     ecut=    30.00 Ry     beta= 0.40
     Davidson diagonalization with overlap
     ethr =  2.43E-04,  avg # of iterations =  1.0

     negative rho (up, down):  9.217E-03 3.728E-02

     total cpu time spent up to now is       31.5 secs

     total energy              =    -330.56550247 Ry
     estimated scf accuracy    <       1.38137095 Ry

     total magnetization       =    -2.00 Bohr mag/cell
     absolute magnetization    =     2.02 Bohr mag/cell

     iteration # 11     ecut=    30.00 Ry     beta= 0.40
     Davidson diagonalization with overlap
     ethr =  2.43E-04,  avg # of iterations =  5.0

     negative rho (up, down):  9.781E-03 1.052E-01

     total cpu time spent up to now is       33.8 secs

     total energy              =    -330.80065489 Ry
     estimated scf accuracy    <       0.03864263 Ry

     total magnetization       =     0.00 Bohr mag/cell
     absolute magnetization    =     0.19 Bohr mag/cell

     iteration # 12     ecut=    30.00 Ry     beta= 0.40
     Davidson diagonalization with overlap
     ethr =  2.43E-04,  avg # of iterations =  2.0

     negative rho (up, down):  9.975E-03 3.974E-01

     total cpu time spent up to now is       36.0 secs

     total energy              =    -330.77822204 Ry
     estimated scf accuracy    <       0.09576026 Ry

     total magnetization       =    -0.00 Bohr mag/cell
     absolute magnetization    =     0.26 Bohr mag/cell

     iteration # 13     ecut=    30.00 Ry     beta= 0.40
     Davidson diagonalization with overlap
     ethr =  2.43E-04,  avg # of iterations =  3.0

     negative rho (up, down):  8.370E-02 1.567E-02

     total cpu time spent up to now is       38.2 secs

     total energy              =    -330.72095788 Ry
     estimated scf accuracy    <       0.21573199 Ry

     total magnetization       =    -0.00 Bohr mag/cell
     absolute magnetization    =     0.41 Bohr mag/cell

     iteration # 14     ecut=    30.00 Ry     beta= 0.40
     Davidson diagonalization with overlap
     ethr =  2.43E-04,  avg # of iterations =  4.0

     negative rho (up, down):  9.513E-02 1.517E-02

     total cpu time spent up to now is       40.2 secs

     total energy              =    -330.79180068 Ry
     estimated scf accuracy    <       0.16948889 Ry

     total magnetization       =    -1.85 Bohr mag/cell
     absolute magnetization    =     1.87 Bohr mag/cell

     iteration # 15     ecut=    30.00 Ry     beta= 0.40
     Davidson diagonalization with overlap
     ethr =  2.43E-04,  avg # of iterations =  1.5
     Minimization algorithm failed to find Fermi energy: reverting to bisection
     Possible cause: smearing is larger than the electronic band-gap.

     negative rho (up, down):  6.820E-02 1.517E-02

     total cpu time spent up to now is       42.3 secs

     total energy              =    -330.79172692 Ry
     estimated scf accuracy    <       0.24830334 Ry

     total magnetization       =    -2.17 Bohr mag/cell
     absolute magnetization    =     2.19 Bohr mag/cell

     iteration # 16     ecut=    30.00 Ry     beta= 0.40
     Davidson diagonalization with overlap
     ethr =  2.43E-04,  avg # of iterations =  1.0

     negative rho (up, down):  3.440E-02 1.538E-02

     total cpu time spent up to now is       44.4 secs

     total energy              =    -330.77839783 Ry
     estimated scf accuracy    <       0.17915684 Ry

     total magnetization       =    -1.82 Bohr mag/cell
     absolute magnetization    =     1.84 Bohr mag/cell

     iteration # 17     ecut=    30.00 Ry     beta= 0.40
     Davidson diagonalization with overlap
     ethr =  2.43E-04,  avg # of iterations =  1.0

     negative rho (up, down):  1.518E-02 1.705E-02

     total cpu time spent up to now is       46.4 secs

     total energy              =    -330.79217030 Ry
     estimated scf accuracy    <       0.00069792 Ry

     total magnetization       =    -0.06 Bohr mag/cell
     absolute magnetization    =     0.09 Bohr mag/cell

     iteration # 18     ecut=    30.00 Ry     beta= 0.40
     Davidson diagonalization with overlap
     ethr =  6.98E-06,  avg # of iterations =  5.0

     negative rho (up, down):  1.590E-02 1.669E-02

     total cpu time spent up to now is       48.5 secs

     total energy              =    -330.79473218 Ry
     estimated scf accuracy    <       0.00282976 Ry

     total magnetization       =     0.00 Bohr mag/cell
     absolute magnetization    =     0.03 Bohr mag/cell

     iteration # 19     ecut=    30.00 Ry     beta= 0.40
     Davidson diagonalization with overlap
     ethr =  6.98E-06,  avg # of iterations =  2.0

     negative rho (up, down):  1.626E-02 1.671E-02

     total cpu time spent up to now is       50.5 secs

     total energy              =    -330.79508278 Ry
     estimated scf accuracy    <       0.00030522 Ry

     total magnetization       =     0.01 Bohr mag/cell
     absolute magnetization    =     0.01 Bohr mag/cell

     iteration # 20     ecut=    30.00 Ry     beta= 0.40
     Davidson diagonalization with overlap
     ethr =  3.05E-06,  avg # of iterations =  3.5

     negative rho (up, down):  1.660E-02 1.663E-02

     total cpu time spent up to now is       52.7 secs

     total energy              =    -330.79507724 Ry
     estimated scf accuracy    <       0.00013479 Ry

     total magnetization       =     0.01 Bohr mag/cell
     absolute magnetization    =     0.01 Bohr mag/cell

     iteration # 21     ecut=    30.00 Ry     beta= 0.40
     Davidson diagonalization with overlap
     ethr =  1.35E-06,  avg # of iterations =  2.0

     negative rho (up, down):  1.691E-02 1.651E-02

     total cpu time spent up to now is       54.8 secs

     total energy              =    -330.79522756 Ry
     estimated scf accuracy    <       0.00036753 Ry

     total magnetization       =     0.01 Bohr mag/cell
     absolute magnetization    =     0.01 Bohr mag/cell

     iteration # 22     ecut=    30.00 Ry     beta= 0.40
     Davidson diagonalization with overlap
     ethr =  1.35E-06,  avg # of iterations =  2.0

     negative rho (up, down):  1.718E-02 1.609E-02

     total cpu time spent up to now is       56.8 secs

     total energy              =    -330.79563693 Ry
     estimated scf accuracy    <       0.00123969 Ry

     total magnetization       =     0.00 Bohr mag/cell
     absolute magnetization    =     0.01 Bohr mag/cell

     iteration # 23     ecut=    30.00 Ry     beta= 0.40
     Davidson diagonalization with overlap
     ethr =  1.35E-06,  avg # of iterations =  4.5

     negative rho (up, down):  1.732E-02 1.623E-02

     total cpu time spent up to now is       59.0 secs

     total energy              =    -330.79530798 Ry
     estimated scf accuracy    <       0.00499436 Ry

     total magnetization       =     0.00 Bohr mag/cell
     absolute magnetization    =     0.01 Bohr mag/cell

     iteration # 24     ecut=    30.00 Ry     beta= 0.40
     Davidson diagonalization with overlap
     ethr =  1.35E-06,  avg # of iterations =  2.0

     negative rho (up, down):  1.684E-02 1.639E-02

     total cpu time spent up to now is       61.3 secs

     total energy              =    -330.79503633 Ry
     estimated scf accuracy    <       0.00359908 Ry

     total magnetization       =     0.00 Bohr mag/cell
     absolute magnetization    =     0.01 Bohr mag/cell

     iteration # 25     ecut=    30.00 Ry     beta= 0.40
     Davidson diagonalization with overlap
     ethr =  1.35E-06,  avg # of iterations =  4.0

     negative rho (up, down):  1.665E-02 1.655E-02

     total cpu time spent up to now is       63.5 secs

     total energy              =    -330.79508944 Ry
     estimated scf accuracy    <       0.00088752 Ry

     total magnetization       =     0.00 Bohr mag/cell
     absolute magnetization    =     0.01 Bohr mag/cell

     iteration # 26     ecut=    30.00 Ry     beta= 0.40
     Davidson diagonalization with overlap
     ethr =  1.35E-06,  avg # of iterations =  3.5

     negative rho (up, down):  1.780E-02 1.712E-02

     total cpu time spent up to now is       65.7 secs

     total energy              =    -330.79509144 Ry
     estimated scf accuracy    <       0.00016720 Ry

     total magnetization       =     0.00 Bohr mag/cell
     absolute magnetization    =     0.01 Bohr mag/cell

     iteration # 27     ecut=    30.00 Ry     beta= 0.40
     Davidson diagonalization with overlap
     ethr =  1.35E-06,  avg # of iterations = 11.5

     negative rho (up, down):  1.762E-02 1.686E-02

     total cpu time spent up to now is       69.1 secs

     total energy              =    -330.79517304 Ry
     estimated scf accuracy    <       0.00003306 Ry

     total magnetization       =     0.01 Bohr mag/cell
     absolute magnetization    =     0.01 Bohr mag/cell

     iteration # 28     ecut=    30.00 Ry     beta= 0.40
     Davidson diagonalization with overlap
     ethr =  3.31E-07,  avg # of iterations =  1.0

     negative rho (up, down):  1.722E-02 1.689E-02

     total cpu time spent up to now is       71.2 secs

     total energy              =    -330.79519812 Ry
     estimated scf accuracy    <       0.00003961 Ry

     total magnetization       =     0.01 Bohr mag/cell
     absolute magnetization    =     0.01 Bohr mag/cell

     iteration # 29     ecut=    30.00 Ry     beta= 0.40
     Davidson diagonalization with overlap
     ethr =  3.31E-07,  avg # of iterations =  1.5

     negative rho (up, down):  1.686E-02 1.683E-02

     total cpu time spent up to now is       73.3 secs

     total energy              =    -330.79520255 Ry
     estimated scf accuracy    <       0.00002911 Ry

     total magnetization       =     0.00 Bohr mag/cell
     absolute magnetization    =     0.00 Bohr mag/cell

     iteration # 30     ecut=    30.00 Ry     beta= 0.40
     Davidson diagonalization with overlap
     ethr =  2.91E-07,  avg # of iterations =  1.5

     negative rho (up, down):  1.677E-02 1.679E-02

     total cpu time spent up to now is       75.3 secs

     total energy              =    -330.79520447 Ry
     estimated scf accuracy    <       0.00000190 Ry

     total magnetization       =     0.00 Bohr mag/cell
     absolute magnetization    =     0.00 Bohr mag/cell

     iteration # 31     ecut=    30.00 Ry     beta= 0.40
     Davidson diagonalization with overlap
     ethr =  1.90E-08,  avg # of iterations =  2.5

     negative rho (up, down):  1.679E-02 1.681E-02

     total cpu time spent up to now is       77.4 secs

     total energy              =    -330.79520616 Ry
     estimated scf accuracy    <       0.00000332 Ry

     total magnetization       =     0.00 Bohr mag/cell
     absolute magnetization    =     0.00 Bohr mag/cell

     iteration # 32     ecut=    30.00 Ry     beta= 0.40
     Davidson diagonalization with overlap
     ethr =  1.90E-08,  avg # of iterations =  1.5

     negative rho (up, down):  1.680E-02 1.680E-02

     total cpu time spent up to now is       79.3 secs

     total energy              =    -330.79520628 Ry
     estimated scf accuracy    <       0.00000044 Ry

     total magnetization       =    -0.00 Bohr mag/cell
     absolute magnetization    =     0.00 Bohr mag/cell

     iteration # 33     ecut=    30.00 Ry     beta= 0.40
     Davidson diagonalization with overlap
     ethr =  4.44E-09,  avg # of iterations =  2.0

     negative rho (up, down):  1.680E-02 1.680E-02
 
     Magnetic moment per site  (integrated on atomic sphere of radius R)
     atom   1 (R=0.413)  charge= 10.0000  magn= -0.0000

     total cpu time spent up to now is       81.1 secs

     End of self-consistent calculation

 ------ SPIN UP ------------


          k = 0.0000 0.0000 0.0000 ( 63077 PWs)   bands (ev):

    -3.9343  -3.9343  -3.9325  -3.9325  -3.9325  -3.2627  -0.4916  -0.3422
    -0.3422

 ------ SPIN DOWN ----------


          k = 0.0000 0.0000 0.0000 ( 63077 PWs)   bands (ev):

    -3.9339  -3.9339  -3.9324  -3.9324  -3.9324  -3.2625  -0.3419  -0.3419
    -0.3417

     the Fermi energy is    -3.5729 ev

!    total energy              =    -330.79520638 Ry
     total all-electron energy =    -10091.779168 Ry
     estimated scf accuracy    <          5.5E-09 Ry
     smearing contrib. (-TS)   =       0.00031202 Ry
     internal energy E=F+TS    =    -330.79551841 Ry

     The total energy is F=E-TS. E is the sum of the following terms:
     one-electron contribution =     -81.19073038 Ry
     hartree contribution      =      48.03943878 Ry
     xc contribution           =     -21.69734794 Ry
     ewald contribution        =     -10.00955451 Ry
     one-center paw contrib.   =    -265.93732436 Ry

     total magnetization       =    -0.00 Bohr mag/cell
     absolute magnetization    =     0.00 Bohr mag/cell

     convergence has been achieved in  33 iterations

     negative rho (up, down):  1.680E-02 1.680E-02

     Forces acting on atoms (cartesian axes, Ry/au):

     atom    1 type  1   force =     0.00000000    0.00000000    0.00000000

     Total force =     0.000000     Total SCF correction =     0.000000


     Computing stress (Cartesian axis) and pressure


     negative rho (up, down):  1.680E-02 1.680E-02
          total   stress  (Ry/bohr**3)                   (kbar)     P=       -0.10
  -0.00000066   0.00000000   0.00000000           -0.10        0.00        0.00
   0.00000000  -0.00000066   0.00000000            0.00       -0.10        0.00
   0.00000000   0.00000000  -0.00000066            0.00        0.00       -0.10


     Writing all to output data dir /root/qe_scratch/atom_Pd.save/ :
     XML data file, charge density, pseudopotentials, collected wavefunctions
 
     init_run     :      8.45s CPU     11.41s WALL (       1 calls)
     electrons    :     61.30s CPU     69.42s WALL (       1 calls)
     forces       :      0.20s CPU      0.22s WALL (       1 calls)
     stress       :      0.37s CPU      0.41s WALL (       1 calls)

     Called by init_run:
     wfcinit      :      0.13s CPU      0.32s WALL (       1 calls)
     potinit      :      7.27s CPU      9.76s WALL (       1 calls)
     hinit0       :      0.32s CPU      0.42s WALL (       1 calls)

     Called by electrons:
     c_bands      :      4.29s CPU      4.32s WALL (      33 calls)
     sum_band     :      5.91s CPU      5.94s WALL (      33 calls)
     v_of_rho     :      3.75s CPU      4.64s WALL (      34 calls)
     newd         :      0.97s CPU      1.07s WALL (      34 calls)
                                        1.07s GPU  (      34 calls)
     PAW_pot      :     29.66s CPU     34.71s WALL (      34 calls)
     mix_rho      :      6.05s CPU      6.32s WALL (      33 calls)

     Called by c_bands:
     init_us_2    :      0.04s CPU      0.04s WALL (     138 calls)
     cegterg      :      3.84s CPU      3.86s WALL (      66 calls)

     Called by *egterg:
     cdiaghg      :      0.15s CPU      0.18s WALL (     234 calls)
                                        0.18s GPU  (     234 calls)
     h_psi        :      0.73s CPU      0.91s WALL (     236 calls)
                                        0.91s GPU  (     236 calls)
     s_psi        :      0.01s CPU      0.01s WALL (     236 calls)
     g_psi        :      0.00s CPU      0.01s WALL (     168 calls)
                                        0.01s GPU  (     168 calls)

     Called by h_psi:
     h_psi:calbec :      0.09s CPU      0.36s WALL (     236 calls)
                                        0.36s GPU  (     236 calls)
     vloc_psi     :      0.46s CPU      0.48s WALL (     236 calls)
                                        0.48s GPU  (     236 calls)
     add_vuspsi   :      0.01s CPU      0.05s WALL (     236 calls)
                                        0.05s GPU  (     236 calls)

     General routines
     calbec       :      0.09s CPU      0.26s WALL (     312 calls)
     fft          :      9.37s CPU     12.33s WALL (     888 calls)
                                        0.23s GPU  (     820 calls)
     ffts         :      4.41s CPU      5.77s WALL (     134 calls)
                                        0.01s GPU  (      66 calls)
     fftw         :      0.01s CPU      0.44s WALL (     538 calls)
                                        0.44s GPU  (     538 calls)
     interpolate  :     14.70s CPU     18.89s WALL (      68 calls)
 
     Parallel routines
 
     PWSCF        :   1m10.80s CPU   1m22.19s WALL

 
   This run was terminated on:   8: 5: 4   6May2026            

=------------------------------------------------------------------------------=
   JOB DONE.
=------------------------------------------------------------------------------=
Warning: ieee_invalid is signaling
Warning: ieee_divide_by_zero is signaling
Warning: ieee_inexact is signaling
FORTRAN STOP
