--------------------------------------------------------------------------
WARNING: Open MPI tried to bind a process but failed.  This is a
warning only; your job will continue, though performance may
be degraded.

  Local host:        3253031b5b37
  Application name:  /root/qe-7.3.1/bin/pw.x
  Error message:     failed to bind memory
  Location:          ../../../../../orte/mca/rtc/hwloc/rtc_hwloc.c:447

--------------------------------------------------------------------------

     Program PWSCF v.7.3.1 starts on  6May2026 at  7:59:14 

     This program is part of the open-source Quantum ESPRESSO suite
     for quantum simulation of materials; please cite
         "P. Giannozzi et al., J. Phys.:Condens. Matter 21 395502 (2009);
         "P. Giannozzi et al., J. Phys.:Condens. Matter 29 465901 (2017);
         "P. Giannozzi et al., J. Chem. Phys. 152 154105 (2020);
          URL http://www.quantum-espresso.org", 
     in publications or presentations arising from this work. More details at
     http://www.quantum-espresso.org/quote

     Parallel version (MPI & OpenMP), running on       8 processor cores
     Number of MPI processes:                 1
     Threads/MPI process:                     8

     MPI processes distributed on     1 nodes
     90304 MiB available memory on the printing compute node when the environment starts
 
     Reading input from atom_Mo.in

     Current dimensions of program PWSCF are:
     Max number of different atomic species (ntypx) = 10
     Max number of k-points (npk) =  40000
     Max angular momentum in pseudopotentials (lmaxx) =  4
     file Mo.UPF: wavefunction(s)  4S 4D renormalized
     Message from routine setup:
     using ibrav=0 with symmetry is DISCOURAGED, use correct ibrav instead
 
     Subspace diagonalization in iterative solution of the eigenvalue problem:
     a serial algorithm will be used

 
     G-vector sticks info
     --------------------
     sticks:   dense  smooth     PW     G-vecs:    dense   smooth      PW
     Sum       11513    7685   1917               929121   505887   63077
 
     Using Slab Decomposition
 


     bravais-lattice index     =            0
     lattice parameter (alat)  =      28.3459  a.u.
     unit-cell volume          =   22775.6289 (a.u.)^3
     number of atoms/cell      =            1
     number of atomic types    =            1
     number of electrons       =        14.00
     number of Kohn-Sham states=           11
     kinetic-energy cutoff     =      30.0000  Ry
     charge density cutoff     =     180.0000  Ry
     scf convergence threshold =      1.0E-07
     mixing beta               =       0.4000
     number of iterations used =            8  plain     mixing
     Exchange-correlation= SLA  PW   PBX  PBC
                           (   1   4   3   4   0   0   0)

     GPU acceleration is ACTIVE.  1 visible GPUs per MPI rank


     celldm(1)=  28.345892  celldm(2)=   0.000000  celldm(3)=   0.000000
     celldm(4)=   0.000000  celldm(5)=   0.000000  celldm(6)=   0.000000

     crystal axes: (cart. coord. in units of alat)
               a(1) = (   1.000000   0.000000   0.000000 )  
               a(2) = (   0.000000   1.000000   0.000000 )  
               a(3) = (   0.000000   0.000000   1.000000 )  

     reciprocal axes: (cart. coord. in units 2 pi/alat)
               b(1) = (  1.000000  0.000000  0.000000 )  
               b(2) = (  0.000000  1.000000  0.000000 )  
               b(3) = (  0.000000  0.000000  1.000000 )  


     PseudoPot. # 1 for Mo read from file:
     /root/qe_pseudos/Mo.UPF
     MD5 check sum: 4396e0c640fcce5c25f020efccf1ab12
     Pseudo is Projector augmented-wave + core cor, Zval = 14.0
     Generated using &quot;atomic&quot; code by A. Dal Corso  v.6.3
     Shape of augmentation charge: PSQ
     Using radial grid of 1229 points,  6 beta functions with: 
                l(1) =   0
                l(2) =   0
                l(3) =   1
                l(4) =   1
                l(5) =   2
                l(6) =   2
     Q(r) pseudized with 0 coefficients 


     atomic species   valence    mass     pseudopotential
     Mo               14.00    95.95000     Mo( 1.00)

     Starting magnetic structure 
     atomic species   magnetization
     Mo              0.500

     48 Sym. Ops., with inversion, found



   Cartesian axes

     site n.     atom                  positions (alat units)
         1        Mo     tau(   1) = (   0.5000000   0.5000000   0.5000000  )

     number of k points=     1  Methfessel-Paxton smearing, width (Ry)=  0.0100
                       cart. coord. in units 2pi/alat
        k(    1) = (   0.0000000   0.0000000   0.0000000), wk =   1.0000000

     Dense  grid:   929121 G-vectors     FFT dimensions: ( 125, 125, 125)

     Smooth grid:   505887 G-vectors     FFT dimensions: ( 100, 100, 100)

     Estimated max dynamical RAM per process >       3.71 GB
     Generating pointlists ...
     new r_m :   0.4125 (alat units) 11.6927 (a.u.) for type    1

     Initial potential from superposition of free atoms

     starting charge      13.9991, renormalised to      14.0000

     negative rho (up, down):  2.766E-02 9.221E-03
     Starting wfcs are   10 randomized atomic wfcs +    1 random wfcs
     Checking if some PAW data can be deallocated... 

     total cpu time spent up to now is       11.8 secs

     Self-consistent Calculation

     iteration #  1     ecut=    30.00 Ry     beta= 0.40
     Davidson diagonalization with overlap
     ethr =  1.00E-02,  avg # of iterations =  8.0

     negative rho (up, down):  2.483E-02 1.500E-02

     total cpu time spent up to now is       15.3 secs

     total energy              =    -363.28680366 Ry
     estimated scf accuracy    <       0.28445719 Ry

     total magnetization       =     6.00 Bohr mag/cell
     absolute magnetization    =     6.00 Bohr mag/cell

     iteration #  2     ecut=    30.00 Ry     beta= 0.40
     Davidson diagonalization with overlap
     ethr =  2.03E-03,  avg # of iterations =  1.5

     negative rho (up, down):  2.285E-02 1.931E-02

     total cpu time spent up to now is       17.2 secs

     total energy              =    -363.36358849 Ry
     estimated scf accuracy    <       0.06247917 Ry

     total magnetization       =     6.00 Bohr mag/cell
     absolute magnetization    =     6.00 Bohr mag/cell

     iteration #  3     ecut=    30.00 Ry     beta= 0.40
     Davidson diagonalization with overlap
     ethr =  4.46E-04,  avg # of iterations =  1.5

     negative rho (up, down):  2.121E-02 2.735E-02

     total cpu time spent up to now is       19.0 secs

     total energy              =    -363.39223516 Ry
     estimated scf accuracy    <       0.01924013 Ry

     total magnetization       =     6.00 Bohr mag/cell
     absolute magnetization    =     6.00 Bohr mag/cell

     iteration #  4     ecut=    30.00 Ry     beta= 0.40
     Davidson diagonalization with overlap
     ethr =  1.37E-04,  avg # of iterations =  3.0

     negative rho (up, down):  2.035E-02 3.048E-02

     total cpu time spent up to now is       21.2 secs

     total energy              =    -363.39677251 Ry
     estimated scf accuracy    <       0.00114081 Ry

     total magnetization       =     6.00 Bohr mag/cell
     absolute magnetization    =     6.00 Bohr mag/cell

     iteration #  5     ecut=    30.00 Ry     beta= 0.40
     Davidson diagonalization with overlap
     ethr =  8.15E-06,  avg # of iterations =  7.0

     negative rho (up, down):  1.967E-02 3.075E-02

     total cpu time spent up to now is       24.1 secs

     total energy              =    -363.39658947 Ry
     estimated scf accuracy    <       0.00017198 Ry

     total magnetization       =     6.00 Bohr mag/cell
     absolute magnetization    =     6.00 Bohr mag/cell

     iteration #  6     ecut=    30.00 Ry     beta= 0.40
     Davidson diagonalization with overlap
     ethr =  1.23E-06,  avg # of iterations =  3.0

     negative rho (up, down):  1.937E-02 3.126E-02

     total cpu time spent up to now is       26.5 secs

     total energy              =    -363.39654572 Ry
     estimated scf accuracy    <       0.00000208 Ry

     total magnetization       =     6.00 Bohr mag/cell
     absolute magnetization    =     6.00 Bohr mag/cell

     iteration #  7     ecut=    30.00 Ry     beta= 0.40
     Davidson diagonalization with overlap
     ethr =  1.48E-08,  avg # of iterations =  3.0

     negative rho (up, down):  1.918E-02 3.148E-02

     total cpu time spent up to now is       28.6 secs

     total energy              =    -363.39635100 Ry
     estimated scf accuracy    <       0.00000690 Ry

     total magnetization       =     6.00 Bohr mag/cell
     absolute magnetization    =     6.00 Bohr mag/cell

     iteration #  8     ecut=    30.00 Ry     beta= 0.40
     Davidson diagonalization with overlap
     ethr =  1.48E-08,  avg # of iterations =  2.5

     negative rho (up, down):  1.908E-02 3.168E-02

     total cpu time spent up to now is       30.8 secs

     total energy              =    -363.39637919 Ry
     estimated scf accuracy    <       0.00000057 Ry

     total magnetization       =     6.00 Bohr mag/cell
     absolute magnetization    =     6.00 Bohr mag/cell

     iteration #  9     ecut=    30.00 Ry     beta= 0.40
     Davidson diagonalization with overlap
     ethr =  4.06E-09,  avg # of iterations =  1.5

     negative rho (up, down):  1.893E-02 3.202E-02
 
     Magnetic moment per site  (integrated on atomic sphere of radius R)
     atom   1 (R=0.413)  charge= 13.9998  magn=  5.9999

     total cpu time spent up to now is       32.6 secs

     End of self-consistent calculation

 ------ SPIN UP ------------


          k = 0.0000 0.0000 0.0000 ( 63077 PWs)   bands (ev):

   -64.9774 -39.2432 -39.2432 -39.2432  -4.6200  -4.5042  -4.5042  -4.5019
    -4.5019  -4.5019  -1.3271

 ------ SPIN DOWN ----------


          k = 0.0000 0.0000 0.0000 ( 63077 PWs)   bands (ev):

   -62.3424 -36.2668 -36.2668 -36.2668  -2.2298  -1.1906  -1.1905  -1.1844
    -1.1844  -1.1844  -0.4979

     the Fermi energy is    -3.3374 ev

!    total energy              =    -363.39635550 Ry
     total all-electron energy =     -8097.524326 Ry
     estimated scf accuracy    <       0.00000007 Ry
     smearing contrib. (-TS)   =       0.00000000 Ry
     internal energy E=F+TS    =    -363.39635550 Ry

     The total energy is F=E-TS. E is the sum of the following terms:
     one-electron contribution =    -190.23515671 Ry
     hartree contribution      =      93.19048022 Ry
     xc contribution           =     -19.41004967 Ry
     ewald contribution        =     -19.61872676 Ry
     one-center paw contrib.   =    -227.32290257 Ry

     total magnetization       =     6.00 Bohr mag/cell
     absolute magnetization    =     6.00 Bohr mag/cell

     convergence has been achieved in   9 iterations

     negative rho (up, down):  1.893E-02 3.202E-02

     Forces acting on atoms (cartesian axes, Ry/au):

     atom    1 type  1   force =     0.00000000    0.00000000    0.00000000

     Total force =     0.000000     Total SCF correction =     0.000000


     Computing stress (Cartesian axis) and pressure


     negative rho (up, down):  1.893E-02 3.202E-02
          total   stress  (Ry/bohr**3)                   (kbar)     P=       -2.32
  -0.00001576   0.00000000   0.00000000           -2.32        0.00        0.00
   0.00000000  -0.00001576   0.00000000            0.00       -2.32        0.00
   0.00000000   0.00000000  -0.00001576            0.00        0.00       -2.32


     Writing all to output data dir /root/qe_scratch/atom_Mo.save/ :
     XML data file, charge density, pseudopotentials, collected wavefunctions
 
     init_run     :      8.40s CPU     11.45s WALL (       1 calls)
     electrons    :     18.53s CPU     20.90s WALL (       1 calls)
     forces       :      0.18s CPU      0.22s WALL (       1 calls)
     stress       :      0.37s CPU      0.41s WALL (       1 calls)

     Called by init_run:
     wfcinit      :      0.15s CPU      0.33s WALL (       1 calls)
     potinit      :      7.25s CPU      9.80s WALL (       1 calls)
     hinit0       :      0.29s CPU      0.42s WALL (       1 calls)

     Called by electrons:
     c_bands      :      3.34s CPU      3.37s WALL (       9 calls)
     sum_band     :      1.61s CPU      1.64s WALL (       9 calls)
     v_of_rho     :      1.07s CPU      1.42s WALL (      10 calls)
     newd         :      0.35s CPU      0.40s WALL (      10 calls)
                                        0.40s GPU  (      10 calls)
     PAW_pot      :      8.96s CPU     10.45s WALL (      10 calls)
     mix_rho      :      1.03s CPU      1.19s WALL (       9 calls)

     Called by c_bands:
     init_us_2    :      0.01s CPU      0.01s WALL (      42 calls)
     cegterg      :      3.20s CPU      3.22s WALL (      18 calls)

     Called by *egterg:
     cdiaghg      :      0.08s CPU      0.09s WALL (      80 calls)
                                        0.09s GPU  (      80 calls)
     h_psi        :      0.31s CPU      0.47s WALL (      82 calls)
                                        0.47s GPU  (      82 calls)
     s_psi        :      0.00s CPU      0.00s WALL (      82 calls)
     g_psi        :      0.00s CPU      0.00s WALL (      62 calls)
                                        0.00s GPU  (      62 calls)

     Called by h_psi:
     h_psi:calbec :      0.10s CPU      0.28s WALL (      82 calls)
                                        0.28s GPU  (      82 calls)
     vloc_psi     :      0.16s CPU      0.17s WALL (      82 calls)
                                        0.17s GPU  (      82 calls)
     add_vuspsi   :      0.00s CPU      0.02s WALL (      82 calls)
                                        0.02s GPU  (      82 calls)

     General routines
     calbec       :      0.10s CPU      0.25s WALL (     110 calls)
     fft          :      5.81s CPU      7.80s WALL (     288 calls)
                                        0.08s GPU  (     268 calls)
     ffts         :      2.45s CPU      3.23s WALL (      38 calls)
                                        0.00s GPU  (      18 calls)
     fftw         :      0.01s CPU      0.16s WALL (     182 calls)
                                        0.16s GPU  (     182 calls)
     interpolate  :      8.53s CPU     11.29s WALL (      20 calls)
 
     Parallel routines
 
     PWSCF        :     28.04s CPU     33.73s WALL

 
   This run was terminated on:   7:59:48   6May2026            

=------------------------------------------------------------------------------=
   JOB DONE.
=------------------------------------------------------------------------------=
Warning: ieee_invalid is signaling
Warning: ieee_divide_by_zero is signaling
Warning: ieee_inexact is signaling
FORTRAN STOP
