--------------------------------------------------------------------------
WARNING: Open MPI tried to bind a process but failed.  This is a
warning only; your job will continue, though performance may
be degraded.

  Local host:        3253031b5b37
  Application name:  /root/qe-7.3.1/bin/pw.x
  Error message:     failed to bind memory
  Location:          ../../../../../orte/mca/rtc/hwloc/rtc_hwloc.c:447

--------------------------------------------------------------------------

     Program PWSCF v.7.3.1 starts on  6May2026 at  8: 0:59 

     This program is part of the open-source Quantum ESPRESSO suite
     for quantum simulation of materials; please cite
         "P. Giannozzi et al., J. Phys.:Condens. Matter 21 395502 (2009);
         "P. Giannozzi et al., J. Phys.:Condens. Matter 29 465901 (2017);
         "P. Giannozzi et al., J. Chem. Phys. 152 154105 (2020);
          URL http://www.quantum-espresso.org", 
     in publications or presentations arising from this work. More details at
     http://www.quantum-espresso.org/quote

     Parallel version (MPI & OpenMP), running on       8 processor cores
     Number of MPI processes:                 1
     Threads/MPI process:                     8

     MPI processes distributed on     1 nodes
     90091 MiB available memory on the printing compute node when the environment starts
 
     Reading input from atom_Ni.in

     Current dimensions of program PWSCF are:
     Max number of different atomic species (ntypx) = 10
     Max number of k-points (npk) =  40000
     Max angular momentum in pseudopotentials (lmaxx) =  4
     file Ni.UPF: wavefunction(s)  4S renormalized
     Message from routine setup:
     using ibrav=0 with symmetry is DISCOURAGED, use correct ibrav instead
 
     Subspace diagonalization in iterative solution of the eigenvalue problem:
     a serial algorithm will be used

 
     G-vector sticks info
     --------------------
     sticks:   dense  smooth     PW     G-vecs:    dense   smooth      PW
     Sum       11513    7685   1917               929121   505887   63077
 
     Using Slab Decomposition
 


     bravais-lattice index     =            0
     lattice parameter (alat)  =      28.3459  a.u.
     unit-cell volume          =   22775.6289 (a.u.)^3
     number of atoms/cell      =            1
     number of atomic types    =            1
     number of electrons       =        10.00
     number of Kohn-Sham states=            9
     kinetic-energy cutoff     =      30.0000  Ry
     charge density cutoff     =     180.0000  Ry
     scf convergence threshold =      1.0E-07
     mixing beta               =       0.4000
     number of iterations used =            8  plain     mixing
     Exchange-correlation= SLA  PW   PBE  PBE
                           (   1   4   3   4   0   0   0)

     GPU acceleration is ACTIVE.  1 visible GPUs per MPI rank


     celldm(1)=  28.345892  celldm(2)=   0.000000  celldm(3)=   0.000000
     celldm(4)=   0.000000  celldm(5)=   0.000000  celldm(6)=   0.000000

     crystal axes: (cart. coord. in units of alat)
               a(1) = (   1.000000   0.000000   0.000000 )  
               a(2) = (   0.000000   1.000000   0.000000 )  
               a(3) = (   0.000000   0.000000   1.000000 )  

     reciprocal axes: (cart. coord. in units 2 pi/alat)
               b(1) = (  1.000000  0.000000  0.000000 )  
               b(2) = (  0.000000  1.000000  0.000000 )  
               b(3) = (  0.000000  0.000000  1.000000 )  


     PseudoPot. # 1 for Ni read from file:
     /root/qe_pseudos/Ni.UPF
     MD5 check sum: f3dced881015233e580a368199c8c48a
     Pseudo is Ultrasoft + core correction, Zval = 10.0
     Generated by new atomic code, or converted to UPF format
     Using radial grid of 1203 points,  6 beta functions with: 
                l(1) =   0
                l(2) =   0
                l(3) =   1
                l(4) =   1
                l(5) =   2
                l(6) =   2
     Q(r) pseudized with 0 coefficients 


     atomic species   valence    mass     pseudopotential
     Ni               10.00    58.69340     Ni( 1.00)

     Starting magnetic structure 
     atomic species   magnetization
     Ni              0.500

     48 Sym. Ops., with inversion, found



   Cartesian axes

     site n.     atom                  positions (alat units)
         1        Ni     tau(   1) = (   0.5000000   0.5000000   0.5000000  )

     number of k points=     1  Methfessel-Paxton smearing, width (Ry)=  0.0100
                       cart. coord. in units 2pi/alat
        k(    1) = (   0.0000000   0.0000000   0.0000000), wk =   1.0000000

     Dense  grid:   929121 G-vectors     FFT dimensions: ( 125, 125, 125)

     Smooth grid:   505887 G-vectors     FFT dimensions: ( 100, 100, 100)

     Estimated max dynamical RAM per process >       3.70 GB

     Check: negative core charge=   -0.000011
     Generating pointlists ...
     new r_m :   0.4125 (alat units) 11.6927 (a.u.) for type    1

     Initial potential from superposition of free atoms

     starting charge       9.9995, renormalised to      10.0000

     negative rho (up, down):  7.742E-02 2.581E-02
     Starting wfcs are    6 randomized atomic wfcs +    3 random wfcs

     total cpu time spent up to now is       10.7 secs

     Self-consistent Calculation

     iteration #  1     ecut=    30.00 Ry     beta= 0.40
     Davidson diagonalization with overlap
     ethr =  1.00E-02,  avg # of iterations =  8.5

     negative rho (up, down):  6.976E-02 2.652E-02

     total cpu time spent up to now is       12.4 secs

     total energy              =     -85.33494526 Ry
     estimated scf accuracy    <       0.46054716 Ry

     total magnetization       =     2.00 Bohr mag/cell
     absolute magnetization    =     2.21 Bohr mag/cell

     iteration #  2     ecut=    30.00 Ry     beta= 0.40
     Davidson diagonalization with overlap
     ethr =  4.61E-03,  avg # of iterations =  2.0

     negative rho (up, down):  6.967E-02 8.707E-02

     total cpu time spent up to now is       13.3 secs

     total energy              =     -85.41483071 Ry
     estimated scf accuracy    <       1.63516771 Ry

     total magnetization       =    -0.00 Bohr mag/cell
     absolute magnetization    =     0.28 Bohr mag/cell

     iteration #  3     ecut=    30.00 Ry     beta= 0.40
     Davidson diagonalization with overlap
     ethr =  4.61E-03,  avg # of iterations =  1.0

     negative rho (up, down):  6.967E-02 5.144E-02

     total cpu time spent up to now is       14.2 secs

     total energy              =     -85.52015689 Ry
     estimated scf accuracy    <       0.16196265 Ry

     total magnetization       =     2.00 Bohr mag/cell
     absolute magnetization    =     2.03 Bohr mag/cell

     iteration #  4     ecut=    30.00 Ry     beta= 0.40
     Davidson diagonalization with overlap
     ethr =  1.62E-03,  avg # of iterations =  1.5

     negative rho (up, down):  6.753E-02 4.513E-02

     total cpu time spent up to now is       15.1 secs

     total energy              =     -85.51909681 Ry
     estimated scf accuracy    <       0.10255700 Ry

     total magnetization       =     2.00 Bohr mag/cell
     absolute magnetization    =     2.05 Bohr mag/cell

     iteration #  5     ecut=    30.00 Ry     beta= 0.40
     Davidson diagonalization with overlap
     ethr =  1.03E-03,  avg # of iterations =  1.0

     negative rho (up, down):  6.289E-02 6.538E-02

     total cpu time spent up to now is       16.1 secs

     total energy              =     -85.54741603 Ry
     estimated scf accuracy    <       0.03029203 Ry

     total magnetization       =     2.00 Bohr mag/cell
     absolute magnetization    =     2.03 Bohr mag/cell

     iteration #  6     ecut=    30.00 Ry     beta= 0.40
     Davidson diagonalization with overlap
     ethr =  3.03E-04,  avg # of iterations =  5.5

     negative rho (up, down):  6.150E-02 6.376E-02

     total cpu time spent up to now is       17.9 secs

     total energy              =     -85.54559672 Ry
     estimated scf accuracy    <       0.04514441 Ry

     total magnetization       =     1.97 Bohr mag/cell
     absolute magnetization    =     2.00 Bohr mag/cell

     iteration #  7     ecut=    30.00 Ry     beta= 0.40
     Davidson diagonalization with overlap
     ethr =  3.03E-04,  avg # of iterations =  1.0

     negative rho (up, down):  6.054E-02 5.478E-02

     total cpu time spent up to now is       18.8 secs

     total energy              =     -85.54425024 Ry
     estimated scf accuracy    <       0.02948552 Ry

     total magnetization       =     2.03 Bohr mag/cell
     absolute magnetization    =     2.06 Bohr mag/cell

     iteration #  8     ecut=    30.00 Ry     beta= 0.40
     Davidson diagonalization with overlap
     ethr =  2.95E-04,  avg # of iterations =  1.0

     negative rho (up, down):  5.975E-02 5.751E-02

     total cpu time spent up to now is       19.8 secs

     total energy              =     -85.54270949 Ry
     estimated scf accuracy    <       0.01965573 Ry

     total magnetization       =     2.00 Bohr mag/cell
     absolute magnetization    =     2.02 Bohr mag/cell

     iteration #  9     ecut=    30.00 Ry     beta= 0.40
     Davidson diagonalization with overlap
     ethr =  1.97E-04,  avg # of iterations =  1.0

     negative rho (up, down):  6.002E-02 5.127E-02

     total cpu time spent up to now is       20.8 secs

     total energy              =     -85.53718543 Ry
     estimated scf accuracy    <       0.01433388 Ry

     total magnetization       =     2.00 Bohr mag/cell
     absolute magnetization    =     2.02 Bohr mag/cell

     iteration # 10     ecut=    30.00 Ry     beta= 0.40
     Davidson diagonalization with overlap
     ethr =  1.43E-04,  avg # of iterations =  2.0

     negative rho (up, down):  5.731E-02 4.912E-02

     total cpu time spent up to now is       21.8 secs

     total energy              =     -85.51546682 Ry
     estimated scf accuracy    <       0.33785442 Ry

     total magnetization       =     2.00 Bohr mag/cell
     absolute magnetization    =     2.07 Bohr mag/cell

     iteration # 11     ecut=    30.00 Ry     beta= 0.40
     Davidson diagonalization with overlap
     ethr =  1.43E-04,  avg # of iterations =  2.0

     negative rho (up, down):  5.718E-02 4.623E-02

     total cpu time spent up to now is       22.8 secs

     total energy              =     -85.54343318 Ry
     estimated scf accuracy    <       0.00985899 Ry

     total magnetization       =     2.00 Bohr mag/cell
     absolute magnetization    =     2.02 Bohr mag/cell

     iteration # 12     ecut=    30.00 Ry     beta= 0.40
     Davidson diagonalization with overlap
     ethr =  9.86E-05,  avg # of iterations =  1.0

     negative rho (up, down):  5.720E-02 4.678E-02

     total cpu time spent up to now is       23.8 secs

     total energy              =     -85.54327191 Ry
     estimated scf accuracy    <       0.01004488 Ry

     total magnetization       =     2.00 Bohr mag/cell
     absolute magnetization    =     2.02 Bohr mag/cell

     iteration # 13     ecut=    30.00 Ry     beta= 0.40
     Davidson diagonalization with overlap
     ethr =  9.86E-05,  avg # of iterations =  1.0

     negative rho (up, down):  5.719E-02 4.799E-02

     total cpu time spent up to now is       24.8 secs

     total energy              =     -85.54262136 Ry
     estimated scf accuracy    <       0.00956052 Ry

     total magnetization       =     2.00 Bohr mag/cell
     absolute magnetization    =     2.02 Bohr mag/cell

     iteration # 14     ecut=    30.00 Ry     beta= 0.40
     Davidson diagonalization with overlap
     ethr =  9.56E-05,  avg # of iterations =  1.0

     negative rho (up, down):  5.712E-02 4.903E-02

     total cpu time spent up to now is       25.8 secs

     total energy              =     -85.54269973 Ry
     estimated scf accuracy    <       0.00782528 Ry

     total magnetization       =     2.00 Bohr mag/cell
     absolute magnetization    =     2.02 Bohr mag/cell

     iteration # 15     ecut=    30.00 Ry     beta= 0.40
     Davidson diagonalization with overlap
     ethr =  7.83E-05,  avg # of iterations =  1.0

     negative rho (up, down):  5.710E-02 4.972E-02

     total cpu time spent up to now is       26.8 secs

     total energy              =     -85.54195013 Ry
     estimated scf accuracy    <       0.00814361 Ry

     total magnetization       =     2.00 Bohr mag/cell
     absolute magnetization    =     2.02 Bohr mag/cell

     iteration # 16     ecut=    30.00 Ry     beta= 0.40
     Davidson diagonalization with overlap
     ethr =  7.83E-05,  avg # of iterations =  1.0

     negative rho (up, down):  5.700E-02 5.039E-02

     total cpu time spent up to now is       27.8 secs

     total energy              =     -85.54188486 Ry
     estimated scf accuracy    <       0.00699617 Ry

     total magnetization       =     2.00 Bohr mag/cell
     absolute magnetization    =     2.02 Bohr mag/cell

     iteration # 17     ecut=    30.00 Ry     beta= 0.40
     Davidson diagonalization with overlap
     ethr =  7.00E-05,  avg # of iterations =  1.0

     negative rho (up, down):  5.701E-02 5.112E-02

     total cpu time spent up to now is       28.8 secs

     total energy              =     -85.54211561 Ry
     estimated scf accuracy    <       0.00698093 Ry

     total magnetization       =     2.00 Bohr mag/cell
     absolute magnetization    =     2.02 Bohr mag/cell

     iteration # 18     ecut=    30.00 Ry     beta= 0.40
     Davidson diagonalization with overlap
     ethr =  6.98E-05,  avg # of iterations =  1.0

     negative rho (up, down):  5.697E-02 5.125E-02

     total cpu time spent up to now is       29.8 secs

     total energy              =     -85.54189492 Ry
     estimated scf accuracy    <       0.00731873 Ry

     total magnetization       =     2.00 Bohr mag/cell
     absolute magnetization    =     2.02 Bohr mag/cell

     iteration # 19     ecut=    30.00 Ry     beta= 0.40
     Davidson diagonalization with overlap
     ethr =  6.98E-05,  avg # of iterations =  1.0

     negative rho (up, down):  6.660E-02 7.098E-02

     total cpu time spent up to now is       30.8 secs

     total energy              =     -85.55412302 Ry
     estimated scf accuracy    <       0.00703036 Ry

     total magnetization       =     2.00 Bohr mag/cell
     absolute magnetization    =     2.02 Bohr mag/cell

     iteration # 20     ecut=    30.00 Ry     beta= 0.40
     Davidson diagonalization with overlap
     ethr =  6.98E-05,  avg # of iterations =  6.0

     negative rho (up, down):  6.099E-02 1.105E-01

     total cpu time spent up to now is       32.2 secs

     total energy              =     -85.60392985 Ry
     estimated scf accuracy    <       0.99908745 Ry

     total magnetization       =    -0.00 Bohr mag/cell
     absolute magnetization    =     0.17 Bohr mag/cell

     iteration # 21     ecut=    30.00 Ry     beta= 0.40
     Davidson diagonalization with overlap
     ethr =  6.98E-05,  avg # of iterations =  2.0

     negative rho (up, down):  6.946E-02 1.354E-01

     total cpu time spent up to now is       33.2 secs

     total energy              =     -85.30744249 Ry
     estimated scf accuracy    <       0.94638970 Ry

     total magnetization       =    -0.03 Bohr mag/cell
     absolute magnetization    =     0.12 Bohr mag/cell

     iteration # 22     ecut=    30.00 Ry     beta= 0.40
     Davidson diagonalization with overlap
     ethr =  6.98E-05,  avg # of iterations =  7.5

     negative rho (up, down):  5.606E-02 5.612E-02

     total cpu time spent up to now is       34.5 secs

     total energy              =     -85.50323155 Ry
     estimated scf accuracy    <       0.80500287 Ry

     total magnetization       =     2.00 Bohr mag/cell
     absolute magnetization    =     2.09 Bohr mag/cell

     iteration # 23     ecut=    30.00 Ry     beta= 0.40
     Davidson diagonalization with overlap
     ethr =  6.98E-05,  avg # of iterations =  4.0

     negative rho (up, down):  5.662E-02 5.509E-02

     total cpu time spent up to now is       35.5 secs

     total energy              =     -85.54214794 Ry
     estimated scf accuracy    <       0.00340068 Ry

     total magnetization       =     2.00 Bohr mag/cell
     absolute magnetization    =     2.02 Bohr mag/cell

     iteration # 24     ecut=    30.00 Ry     beta= 0.40
     Davidson diagonalization with overlap
     ethr =  3.40E-05,  avg # of iterations =  2.0

     negative rho (up, down):  5.690E-02 5.465E-02

     total cpu time spent up to now is       36.5 secs

     total energy              =     -85.54325325 Ry
     estimated scf accuracy    <       0.00829788 Ry

     total magnetization       =     2.00 Bohr mag/cell
     absolute magnetization    =     2.02 Bohr mag/cell

     iteration # 25     ecut=    30.00 Ry     beta= 0.40
     Davidson diagonalization with overlap
     ethr =  3.40E-05,  avg # of iterations =  1.0

     negative rho (up, down):  5.667E-02 5.354E-02

     total cpu time spent up to now is       37.5 secs

     total energy              =     -85.54175047 Ry
     estimated scf accuracy    <       0.01106293 Ry

     total magnetization       =     2.00 Bohr mag/cell
     absolute magnetization    =     2.02 Bohr mag/cell

     iteration # 26     ecut=    30.00 Ry     beta= 0.40
     Davidson diagonalization with overlap
     ethr =  3.40E-05,  avg # of iterations =  1.0

     negative rho (up, down):  5.693E-02 5.299E-02

     total cpu time spent up to now is       38.5 secs

     total energy              =     -85.54267638 Ry
     estimated scf accuracy    <       0.00685701 Ry

     total magnetization       =     2.00 Bohr mag/cell
     absolute magnetization    =     2.02 Bohr mag/cell

     iteration # 27     ecut=    30.00 Ry     beta= 0.40
     Davidson diagonalization with overlap
     ethr =  3.40E-05,  avg # of iterations =  1.0

     negative rho (up, down):  5.767E-02 5.530E-02

     total cpu time spent up to now is       39.5 secs

     total energy              =     -85.54510487 Ry
     estimated scf accuracy    <       0.00819140 Ry

     total magnetization       =     2.00 Bohr mag/cell
     absolute magnetization    =     2.02 Bohr mag/cell

     iteration # 28     ecut=    30.00 Ry     beta= 0.40
     Davidson diagonalization with overlap
     ethr =  3.40E-05,  avg # of iterations =  2.0

     negative rho (up, down):  5.754E-02 6.114E-02

     total cpu time spent up to now is       40.5 secs

     total energy              =     -85.53404539 Ry
     estimated scf accuracy    <       0.02307998 Ry

     total magnetization       =     2.00 Bohr mag/cell
     absolute magnetization    =     2.02 Bohr mag/cell

     iteration # 29     ecut=    30.00 Ry     beta= 0.40
     Davidson diagonalization with overlap
     ethr =  3.40E-05,  avg # of iterations =  3.0

     negative rho (up, down):  5.610E-02 5.703E-02

     total cpu time spent up to now is       41.6 secs

     total energy              =     -85.53022426 Ry
     estimated scf accuracy    <       0.44441581 Ry

     total magnetization       =     2.00 Bohr mag/cell
     absolute magnetization    =     2.10 Bohr mag/cell

     iteration # 30     ecut=    30.00 Ry     beta= 0.40
     Davidson diagonalization with overlap
     ethr =  3.40E-05,  avg # of iterations =  2.0

     negative rho (up, down):  5.625E-02 4.837E-02

     total cpu time spent up to now is       42.6 secs

     total energy              =     -85.54126118 Ry
     estimated scf accuracy    <       0.00049553 Ry

     total magnetization       =     2.00 Bohr mag/cell
     absolute magnetization    =     2.02 Bohr mag/cell

     iteration # 31     ecut=    30.00 Ry     beta= 0.40
     Davidson diagonalization with overlap
     ethr =  4.96E-06,  avg # of iterations =  2.5

     negative rho (up, down):  5.650E-02 4.719E-02

     total cpu time spent up to now is       43.6 secs

     total energy              =     -85.54202800 Ry
     estimated scf accuracy    <       0.00586383 Ry

     total magnetization       =     2.00 Bohr mag/cell
     absolute magnetization    =     2.02 Bohr mag/cell

     iteration # 32     ecut=    30.00 Ry     beta= 0.40
     Davidson diagonalization with overlap
     ethr =  4.96E-06,  avg # of iterations =  1.0

     negative rho (up, down):  5.661E-02 4.801E-02

     total cpu time spent up to now is       44.6 secs

     total energy              =     -85.54197946 Ry
     estimated scf accuracy    <       0.00598306 Ry

     total magnetization       =     2.00 Bohr mag/cell
     absolute magnetization    =     2.02 Bohr mag/cell

     iteration # 33     ecut=    30.00 Ry     beta= 0.40
     Davidson diagonalization with overlap
     ethr =  4.96E-06,  avg # of iterations =  1.0

     negative rho (up, down):  5.670E-02 4.891E-02

     total cpu time spent up to now is       45.6 secs

     total energy              =     -85.54194760 Ry
     estimated scf accuracy    <       0.00610696 Ry

     total magnetization       =     2.00 Bohr mag/cell
     absolute magnetization    =     2.02 Bohr mag/cell

     iteration # 34     ecut=    30.00 Ry     beta= 0.40
     Davidson diagonalization with overlap
     ethr =  4.96E-06,  avg # of iterations =  1.0

     negative rho (up, down):  5.675E-02 4.962E-02

     total cpu time spent up to now is       46.6 secs

     total energy              =     -85.54197576 Ry
     estimated scf accuracy    <       0.00628444 Ry

     total magnetization       =     2.00 Bohr mag/cell
     absolute magnetization    =     2.02 Bohr mag/cell

     iteration # 35     ecut=    30.00 Ry     beta= 0.40
     Davidson diagonalization with overlap
     ethr =  4.96E-06,  avg # of iterations =  1.0

     negative rho (up, down):  5.687E-02 5.012E-02

     total cpu time spent up to now is       47.6 secs

     total energy              =     -85.54226084 Ry
     estimated scf accuracy    <       0.00657589 Ry

     total magnetization       =     2.00 Bohr mag/cell
     absolute magnetization    =     2.02 Bohr mag/cell

     iteration # 36     ecut=    30.00 Ry     beta= 0.40
     Davidson diagonalization with overlap
     ethr =  4.96E-06,  avg # of iterations =  1.0

     negative rho (up, down):  5.690E-02 5.027E-02

     total cpu time spent up to now is       48.5 secs

     total energy              =     -85.54214446 Ry
     estimated scf accuracy    <       0.00741098 Ry

     total magnetization       =     2.00 Bohr mag/cell
     absolute magnetization    =     2.02 Bohr mag/cell

     iteration # 37     ecut=    30.00 Ry     beta= 0.40
     Davidson diagonalization with overlap
     ethr =  4.96E-06,  avg # of iterations =  1.0

     negative rho (up, down):  5.677E-02 5.105E-02

     total cpu time spent up to now is       49.5 secs

     total energy              =     -85.54017665 Ry
     estimated scf accuracy    <       0.00721350 Ry

     total magnetization       =     2.00 Bohr mag/cell
     absolute magnetization    =     2.02 Bohr mag/cell

     iteration # 38     ecut=    30.00 Ry     beta= 0.40
     Davidson diagonalization with overlap
     ethr =  4.96E-06,  avg # of iterations =  3.0

     negative rho (up, down):  5.642E-02 4.803E-02

     total cpu time spent up to now is       50.5 secs

     total energy              =     -85.53932068 Ry
     estimated scf accuracy    <       0.02537677 Ry

     total magnetization       =     2.00 Bohr mag/cell
     absolute magnetization    =     2.03 Bohr mag/cell

     iteration # 39     ecut=    30.00 Ry     beta= 0.40
     Davidson diagonalization with overlap
     ethr =  4.96E-06,  avg # of iterations =  2.0

     negative rho (up, down):  5.658E-02 4.846E-02

     total cpu time spent up to now is       51.5 secs

     total energy              =     -85.54185497 Ry
     estimated scf accuracy    <       0.00420597 Ry

     total magnetization       =     2.00 Bohr mag/cell
     absolute magnetization    =     2.02 Bohr mag/cell

     iteration # 40     ecut=    30.00 Ry     beta= 0.40
     Davidson diagonalization with overlap
     ethr =  4.96E-06,  avg # of iterations =  1.5

     negative rho (up, down):  5.657E-02 4.937E-02

     total cpu time spent up to now is       52.5 secs

     total energy              =     -85.54166762 Ry
     estimated scf accuracy    <       0.00602102 Ry

     total magnetization       =     2.00 Bohr mag/cell
     absolute magnetization    =     2.02 Bohr mag/cell

     iteration # 41     ecut=    30.00 Ry     beta= 0.40
     Davidson diagonalization with overlap
     ethr =  4.96E-06,  avg # of iterations =  1.0

     negative rho (up, down):  5.657E-02 5.003E-02

     total cpu time spent up to now is       53.5 secs

     total energy              =     -85.54146659 Ry
     estimated scf accuracy    <       0.00565802 Ry

     total magnetization       =     2.00 Bohr mag/cell
     absolute magnetization    =     2.02 Bohr mag/cell

     iteration # 42     ecut=    30.00 Ry     beta= 0.40
     Davidson diagonalization with overlap
     ethr =  4.96E-06,  avg # of iterations =  1.0

     negative rho (up, down):  5.657E-02 5.035E-02

     total cpu time spent up to now is       54.5 secs

     total energy              =     -85.54153861 Ry
     estimated scf accuracy    <       0.00465731 Ry

     total magnetization       =     2.00 Bohr mag/cell
     absolute magnetization    =     2.02 Bohr mag/cell

     iteration # 43     ecut=    30.00 Ry     beta= 0.40
     Davidson diagonalization with overlap
     ethr =  4.96E-06,  avg # of iterations =  1.0

     negative rho (up, down):  5.660E-02 5.064E-02

     total cpu time spent up to now is       55.5 secs

     total energy              =     -85.54153846 Ry
     estimated scf accuracy    <       0.00541029 Ry

     total magnetization       =     2.00 Bohr mag/cell
     absolute magnetization    =     2.02 Bohr mag/cell

     iteration # 44     ecut=    30.00 Ry     beta= 0.40
     Davidson diagonalization with overlap
     ethr =  4.96E-06,  avg # of iterations =  1.0

     negative rho (up, down):  5.655E-02 5.087E-02

     total cpu time spent up to now is       56.5 secs

     total energy              =     -85.54130378 Ry
     estimated scf accuracy    <       0.00559467 Ry

     total magnetization       =     2.00 Bohr mag/cell
     absolute magnetization    =     2.02 Bohr mag/cell

     iteration # 45     ecut=    30.00 Ry     beta= 0.40
     Davidson diagonalization with overlap
     ethr =  4.96E-06,  avg # of iterations =  1.0

     negative rho (up, down):  5.651E-02 5.080E-02

     total cpu time spent up to now is       57.5 secs

     total energy              =     -85.54135486 Ry
     estimated scf accuracy    <       0.00364076 Ry

     total magnetization       =     2.00 Bohr mag/cell
     absolute magnetization    =     2.02 Bohr mag/cell

     iteration # 46     ecut=    30.00 Ry     beta= 0.40
     Davidson diagonalization with overlap
     ethr =  4.96E-06,  avg # of iterations =  1.0

     negative rho (up, down):  5.649E-02 5.082E-02

     total cpu time spent up to now is       58.4 secs

     total energy              =     -85.54136227 Ry
     estimated scf accuracy    <       0.00397824 Ry

     total magnetization       =     2.00 Bohr mag/cell
     absolute magnetization    =     2.02 Bohr mag/cell

     iteration # 47     ecut=    30.00 Ry     beta= 0.40
     Davidson diagonalization with overlap
     ethr =  4.96E-06,  avg # of iterations =  1.0

     negative rho (up, down):  5.643E-02 5.113E-02

     total cpu time spent up to now is       59.4 secs

     total energy              =     -85.54101789 Ry
     estimated scf accuracy    <       0.00408708 Ry

     total magnetization       =     2.00 Bohr mag/cell
     absolute magnetization    =     2.02 Bohr mag/cell

     iteration # 48     ecut=    30.00 Ry     beta= 0.40
     Davidson diagonalization with overlap
     ethr =  4.96E-06,  avg # of iterations =  1.5

     negative rho (up, down):  5.635E-02 5.016E-02

     total cpu time spent up to now is       60.4 secs

     total energy              =     -85.54131951 Ry
     estimated scf accuracy    <       0.00005967 Ry

     total magnetization       =     2.00 Bohr mag/cell
     absolute magnetization    =     2.02 Bohr mag/cell

     iteration # 49     ecut=    30.00 Ry     beta= 0.40
     Davidson diagonalization with overlap
     ethr =  5.97E-07,  avg # of iterations =  3.0

     negative rho (up, down):  5.627E-02 4.958E-02

     total cpu time spent up to now is       61.7 secs

     total energy              =     -85.54132700 Ry
     estimated scf accuracy    <       0.00046404 Ry

     total magnetization       =     2.00 Bohr mag/cell
     absolute magnetization    =     2.02 Bohr mag/cell

     iteration # 50     ecut=    30.00 Ry     beta= 0.40
     Davidson diagonalization with overlap
     ethr =  5.97E-07,  avg # of iterations =  1.5

     negative rho (up, down):  5.623E-02 4.946E-02

     total cpu time spent up to now is       62.8 secs

     total energy              =     -85.54132656 Ry
     estimated scf accuracy    <       0.00020725 Ry

     total magnetization       =     2.00 Bohr mag/cell
     absolute magnetization    =     2.02 Bohr mag/cell

     iteration # 51     ecut=    30.00 Ry     beta= 0.40
     Davidson diagonalization with overlap
     ethr =  5.97E-07,  avg # of iterations =  1.0

     negative rho (up, down):  5.622E-02 4.929E-02

     total cpu time spent up to now is       63.8 secs

     total energy              =     -85.54129001 Ry
     estimated scf accuracy    <       0.00030029 Ry

     total magnetization       =     2.00 Bohr mag/cell
     absolute magnetization    =     2.02 Bohr mag/cell

     iteration # 52     ecut=    30.00 Ry     beta= 0.40
     Davidson diagonalization with overlap
     ethr =  5.97E-07,  avg # of iterations =  1.0

     negative rho (up, down):  5.619E-02 4.947E-02

     total cpu time spent up to now is       64.8 secs

     total energy              =     -85.54130791 Ry
     estimated scf accuracy    <       0.00004406 Ry

     total magnetization       =     2.00 Bohr mag/cell
     absolute magnetization    =     2.02 Bohr mag/cell

     iteration # 53     ecut=    30.00 Ry     beta= 0.40
     Davidson diagonalization with overlap
     ethr =  4.41E-07,  avg # of iterations =  1.0

     negative rho (up, down):  5.620E-02 4.967E-02

     total cpu time spent up to now is       65.8 secs

     total energy              =     -85.54127832 Ry
     estimated scf accuracy    <       0.00006366 Ry

     total magnetization       =     2.00 Bohr mag/cell
     absolute magnetization    =     2.02 Bohr mag/cell

     iteration # 54     ecut=    30.00 Ry     beta= 0.40
     Davidson diagonalization with overlap
     ethr =  4.41E-07,  avg # of iterations =  1.0

     negative rho (up, down):  5.619E-02 4.957E-02

     total cpu time spent up to now is       66.8 secs

     total energy              =     -85.54129382 Ry
     estimated scf accuracy    <       0.00004023 Ry

     total magnetization       =     2.00 Bohr mag/cell
     absolute magnetization    =     2.02 Bohr mag/cell

     iteration # 55     ecut=    30.00 Ry     beta= 0.40
     Davidson diagonalization with overlap
     ethr =  4.02E-07,  avg # of iterations =  1.0

     negative rho (up, down):  5.624E-02 4.948E-02

     total cpu time spent up to now is       67.8 secs

     total energy              =     -85.54118689 Ry
     estimated scf accuracy    <       0.00006731 Ry

     total magnetization       =     2.00 Bohr mag/cell
     absolute magnetization    =     2.02 Bohr mag/cell

     iteration # 56     ecut=    30.00 Ry     beta= 0.40
     Davidson diagonalization with overlap
     ethr =  4.02E-07,  avg # of iterations =  2.5

     negative rho (up, down):  5.621E-02 5.017E-02

     total cpu time spent up to now is       68.9 secs

     total energy              =     -85.54128430 Ry
     estimated scf accuracy    <       0.00255625 Ry

     total magnetization       =     2.00 Bohr mag/cell
     absolute magnetization    =     2.02 Bohr mag/cell

     iteration # 57     ecut=    30.00 Ry     beta= 0.40
     Davidson diagonalization with overlap
     ethr =  4.02E-07,  avg # of iterations =  1.0

     negative rho (up, down):  5.617E-02 5.010E-02

     total cpu time spent up to now is       69.9 secs

     total energy              =     -85.54127780 Ry
     estimated scf accuracy    <       0.00186486 Ry

     total magnetization       =     2.00 Bohr mag/cell
     absolute magnetization    =     2.02 Bohr mag/cell

     iteration # 58     ecut=    30.00 Ry     beta= 0.40
     Davidson diagonalization with overlap
     ethr =  4.02E-07,  avg # of iterations =  1.5

     negative rho (up, down):  5.611E-02 4.989E-02

     total cpu time spent up to now is       70.9 secs

     total energy              =     -85.54129723 Ry
     estimated scf accuracy    <       0.00100337 Ry

     total magnetization       =     2.00 Bohr mag/cell
     absolute magnetization    =     2.02 Bohr mag/cell

     iteration # 59     ecut=    30.00 Ry     beta= 0.40
     Davidson diagonalization with overlap
     ethr =  4.02E-07,  avg # of iterations =  2.0

     negative rho (up, down):  5.607E-02 4.998E-02

     total cpu time spent up to now is       71.9 secs

     total energy              =     -85.54128531 Ry
     estimated scf accuracy    <       0.00017440 Ry

     total magnetization       =     2.00 Bohr mag/cell
     absolute magnetization    =     2.02 Bohr mag/cell

     iteration # 60     ecut=    30.00 Ry     beta= 0.40
     Davidson diagonalization with overlap
     ethr =  4.02E-07,  avg # of iterations =  2.0

     negative rho (up, down):  5.607E-02 4.947E-02

     total cpu time spent up to now is       72.9 secs

     total energy              =     -85.54130338 Ry
     estimated scf accuracy    <       0.00053767 Ry

     total magnetization       =     2.00 Bohr mag/cell
     absolute magnetization    =     2.02 Bohr mag/cell

     iteration # 61     ecut=    30.00 Ry     beta= 0.40
     Davidson diagonalization with overlap
     ethr =  4.02E-07,  avg # of iterations =  1.5

     negative rho (up, down):  5.606E-02 4.934E-02

     total cpu time spent up to now is       74.0 secs

     total energy              =     -85.54130764 Ry
     estimated scf accuracy    <       0.00017849 Ry

     total magnetization       =     2.00 Bohr mag/cell
     absolute magnetization    =     2.02 Bohr mag/cell

     iteration # 62     ecut=    30.00 Ry     beta= 0.40
     Davidson diagonalization with overlap
     ethr =  4.02E-07,  avg # of iterations =  1.0

     negative rho (up, down):  5.604E-02 4.965E-02

     total cpu time spent up to now is       75.0 secs

     total energy              =     -85.54129638 Ry
     estimated scf accuracy    <       0.00010474 Ry

     total magnetization       =     2.00 Bohr mag/cell
     absolute magnetization    =     2.02 Bohr mag/cell

     iteration # 63     ecut=    30.00 Ry     beta= 0.40
     Davidson diagonalization with overlap
     ethr =  4.02E-07,  avg # of iterations =  1.5

     negative rho (up, down):  5.603E-02 4.994E-02

     total cpu time spent up to now is       76.1 secs

     total energy              =     -85.54128096 Ry
     estimated scf accuracy    <       0.00012079 Ry

     total magnetization       =     2.00 Bohr mag/cell
     absolute magnetization    =     2.02 Bohr mag/cell

     iteration # 64     ecut=    30.00 Ry     beta= 0.40
     Davidson diagonalization with overlap
     ethr =  4.02E-07,  avg # of iterations =  1.0

     negative rho (up, down):  5.606E-02 5.010E-02

     total cpu time spent up to now is       77.1 secs

     total energy              =     -85.54123099 Ry
     estimated scf accuracy    <       0.00017183 Ry

     total magnetization       =     2.00 Bohr mag/cell
     absolute magnetization    =     2.02 Bohr mag/cell

     iteration # 65     ecut=    30.00 Ry     beta= 0.40
     Davidson diagonalization with overlap
     ethr =  4.02E-07,  avg # of iterations =  1.0

     negative rho (up, down):  5.607E-02 5.020E-02

     total cpu time spent up to now is       78.1 secs

     total energy              =     -85.54122669 Ry
     estimated scf accuracy    <       0.00008348 Ry

     total magnetization       =     2.00 Bohr mag/cell
     absolute magnetization    =     2.02 Bohr mag/cell

     iteration # 66     ecut=    30.00 Ry     beta= 0.40
     Davidson diagonalization with overlap
     ethr =  4.02E-07,  avg # of iterations =  1.0

     negative rho (up, down):  5.607E-02 5.022E-02

     total cpu time spent up to now is       79.1 secs

     total energy              =     -85.54122002 Ry
     estimated scf accuracy    <       0.00006126 Ry

     total magnetization       =     2.00 Bohr mag/cell
     absolute magnetization    =     2.02 Bohr mag/cell

     iteration # 67     ecut=    30.00 Ry     beta= 0.40
     Davidson diagonalization with overlap
     ethr =  4.02E-07,  avg # of iterations =  1.0

     negative rho (up, down):  5.607E-02 4.995E-02

     total cpu time spent up to now is       80.1 secs

     total energy              =     -85.54125241 Ry
     estimated scf accuracy    <       0.00004958 Ry

     total magnetization       =     2.00 Bohr mag/cell
     absolute magnetization    =     2.02 Bohr mag/cell

     iteration # 68     ecut=    30.00 Ry     beta= 0.40
     Davidson diagonalization with overlap
     ethr =  4.02E-07,  avg # of iterations =  1.5

     negative rho (up, down):  5.606E-02 4.949E-02

     total cpu time spent up to now is       81.3 secs

     total energy              =     -85.54129068 Ry
     estimated scf accuracy    <       0.00002482 Ry

     total magnetization       =     2.00 Bohr mag/cell
     absolute magnetization    =     2.02 Bohr mag/cell

     iteration # 69     ecut=    30.00 Ry     beta= 0.40
     Davidson diagonalization with overlap
     ethr =  2.48E-07,  avg # of iterations =  1.5

     negative rho (up, down):  5.606E-02 4.936E-02

     total cpu time spent up to now is       82.4 secs

     total energy              =     -85.54130030 Ry
     estimated scf accuracy    <       0.00000976 Ry

     total magnetization       =     2.00 Bohr mag/cell
     absolute magnetization    =     2.02 Bohr mag/cell

     iteration # 70     ecut=    30.00 Ry     beta= 0.40
     Davidson diagonalization with overlap
     ethr =  9.76E-08,  avg # of iterations =  1.5

     negative rho (up, down):  5.605E-02 4.930E-02

     total cpu time spent up to now is       83.6 secs

     total energy              =     -85.54131821 Ry
     estimated scf accuracy    <       0.00000044 Ry

     total magnetization       =     2.00 Bohr mag/cell
     absolute magnetization    =     2.02 Bohr mag/cell

     iteration # 71     ecut=    30.00 Ry     beta= 0.40
     Davidson diagonalization with overlap
     ethr =  4.43E-09,  avg # of iterations =  3.0

     negative rho (up, down):  5.602E-02 4.920E-02

     total cpu time spent up to now is       84.8 secs

     total energy              =     -85.54132148 Ry
     estimated scf accuracy    <       0.00000039 Ry

     total magnetization       =     2.00 Bohr mag/cell
     absolute magnetization    =     2.02 Bohr mag/cell

     iteration # 72     ecut=    30.00 Ry     beta= 0.40
     Davidson diagonalization with overlap
     ethr =  3.90E-09,  avg # of iterations =  2.5

     negative rho (up, down):  5.603E-02 4.928E-02

     total cpu time spent up to now is       86.0 secs

     total energy              =     -85.54132143 Ry
     estimated scf accuracy    <       0.00000311 Ry

     total magnetization       =     2.00 Bohr mag/cell
     absolute magnetization    =     2.02 Bohr mag/cell

     iteration # 73     ecut=    30.00 Ry     beta= 0.40
     Davidson diagonalization with overlap
     ethr =  3.90E-09,  avg # of iterations =  2.5

     negative rho (up, down):  5.603E-02 4.925E-02

     total cpu time spent up to now is       87.2 secs

     total energy              =     -85.54132697 Ry
     estimated scf accuracy    <       0.00000401 Ry

     total magnetization       =     2.00 Bohr mag/cell
     absolute magnetization    =     2.02 Bohr mag/cell

     iteration # 74     ecut=    30.00 Ry     beta= 0.40
     Davidson diagonalization with overlap
     ethr =  3.90E-09,  avg # of iterations =  2.0

     negative rho (up, down):  5.603E-02 4.926E-02

     total cpu time spent up to now is       88.4 secs

     total energy              =     -85.54132276 Ry
     estimated scf accuracy    <       0.00000205 Ry

     total magnetization       =     2.00 Bohr mag/cell
     absolute magnetization    =     2.02 Bohr mag/cell

     iteration # 75     ecut=    30.00 Ry     beta= 0.40
     Davidson diagonalization with overlap
     ethr =  3.90E-09,  avg # of iterations =  2.0

     negative rho (up, down):  5.602E-02 4.928E-02

     total cpu time spent up to now is       89.5 secs

     total energy              =     -85.54132314 Ry
     estimated scf accuracy    <       0.00000099 Ry

     total magnetization       =     2.00 Bohr mag/cell
     absolute magnetization    =     2.02 Bohr mag/cell

     iteration # 76     ecut=    30.00 Ry     beta= 0.40
     Davidson diagonalization with overlap
     ethr =  3.90E-09,  avg # of iterations =  1.5

     negative rho (up, down):  5.602E-02 4.927E-02

     total cpu time spent up to now is       90.7 secs

     total energy              =     -85.54132287 Ry
     estimated scf accuracy    <       0.00000086 Ry

     total magnetization       =     2.00 Bohr mag/cell
     absolute magnetization    =     2.02 Bohr mag/cell

     iteration # 77     ecut=    30.00 Ry     beta= 0.40
     Davidson diagonalization with overlap
     ethr =  3.90E-09,  avg # of iterations =  1.5

     negative rho (up, down):  5.602E-02 4.928E-02

     total cpu time spent up to now is       91.8 secs

     total energy              =     -85.54132084 Ry
     estimated scf accuracy    <       0.00000217 Ry

     total magnetization       =     2.00 Bohr mag/cell
     absolute magnetization    =     2.02 Bohr mag/cell

     iteration # 78     ecut=    30.00 Ry     beta= 0.40
     Davidson diagonalization with overlap
     ethr =  3.90E-09,  avg # of iterations =  1.5

     negative rho (up, down):  5.602E-02 4.927E-02

     total cpu time spent up to now is       92.9 secs

     total energy              =     -85.54132165 Ry
     estimated scf accuracy    <       0.00000022 Ry

     total magnetization       =     2.00 Bohr mag/cell
     absolute magnetization    =     2.02 Bohr mag/cell

     iteration # 79     ecut=    30.00 Ry     beta= 0.40
     Davidson diagonalization with overlap
     ethr =  2.19E-09,  avg # of iterations =  1.5

     negative rho (up, down):  5.602E-02 4.925E-02
 
     Magnetic moment per site  (integrated on atomic sphere of radius R)
     atom   1 (R=0.413)  charge= 10.0000  magn=  2.0000

     total cpu time spent up to now is       93.8 secs

     End of self-consistent calculation

 ------ SPIN UP ------------


          k = 0.0000 0.0000 0.0000 ( 63077 PWs)   bands (ev):

    -5.2496  -5.2496  -5.2496  -5.2467  -5.2467  -4.9234  -1.0689  -1.0689
    -1.0689

 ------ SPIN DOWN ----------


          k = 0.0000 0.0000 0.0000 ( 63077 PWs)   bands (ev):

    -4.0686  -4.0686  -4.0684  -4.0684  -4.0684  -3.9229  -0.6844  -0.5516
    -0.5516

     the Fermi energy is    -4.0179 ev

!    total energy              =     -85.54132434 Ry
     estimated scf accuracy    <          9.1E-09 Ry
     smearing contrib. (-TS)   =      -0.00446609 Ry
     internal energy E=F+TS    =     -85.53685825 Ry

     The total energy is F=E-TS. E is the sum of the following terms:
     one-electron contribution =    -106.93565251 Ry
     hartree contribution      =      61.43742628 Ry
     xc contribution           =     -30.02907751 Ry
     ewald contribution        =     -10.00955451 Ry

     total magnetization       =     2.00 Bohr mag/cell
     absolute magnetization    =     2.02 Bohr mag/cell

     convergence has been achieved in  79 iterations

     negative rho (up, down):  5.602E-02 4.925E-02

     Forces acting on atoms (cartesian axes, Ry/au):

     atom    1 type  1   force =     0.00000000    0.00000000    0.00000000

     Total force =     0.000000     Total SCF correction =     0.000000


     Computing stress (Cartesian axis) and pressure


     negative rho (up, down):  5.602E-02 4.925E-02
          total   stress  (Ry/bohr**3)                   (kbar)     P=       -0.22
  -0.00000149   0.00000000   0.00000000           -0.22        0.00        0.00
   0.00000000  -0.00000149   0.00000000            0.00       -0.22        0.00
   0.00000000   0.00000000  -0.00000149            0.00        0.00       -0.22


     Writing all to output data dir /root/qe_scratch/atom_Ni.save/ :
     XML data file, charge density, pseudopotentials, collected wavefunctions
 
     init_run     :      7.74s CPU     10.53s WALL (       1 calls)
     electrons    :     75.98s CPU     83.22s WALL (       1 calls)
     forces       :      0.18s CPU      0.23s WALL (       1 calls)
     stress       :      0.39s CPU      0.41s WALL (       1 calls)

     Called by init_run:
     wfcinit      :      0.14s CPU      0.33s WALL (       1 calls)
     potinit      :      6.58s CPU      8.88s WALL (       1 calls)
     hinit0       :      0.30s CPU      0.42s WALL (       1 calls)

     Called by electrons:
     c_bands      :      7.55s CPU      7.63s WALL (      79 calls)
     sum_band     :     14.21s CPU     14.25s WALL (      79 calls)
     v_of_rho     :      8.83s CPU     10.83s WALL (      80 calls)
     newd         :      2.23s CPU      2.36s WALL (      80 calls)
                                        2.36s GPU  (      80 calls)
     mix_rho      :     15.10s CPU     15.72s WALL (      79 calls)

     Called by c_bands:
     init_us_2    :      0.09s CPU      0.09s WALL (     322 calls)
     cegterg      :      6.47s CPU      6.54s WALL (     158 calls)

     Called by *egterg:
     cdiaghg      :      0.28s CPU      0.30s WALL (     435 calls)
                                        0.30s GPU  (     435 calls)
     h_psi        :      1.39s CPU      1.60s WALL (     437 calls)
                                        1.60s GPU  (     437 calls)
     s_psi        :      0.02s CPU      0.02s WALL (     437 calls)
     g_psi        :      0.00s CPU      0.01s WALL (     277 calls)
                                        0.01s GPU  (     277 calls)

     Called by h_psi:
     h_psi:calbec :      0.10s CPU      0.46s WALL (     437 calls)
                                        0.46s GPU  (     437 calls)
     vloc_psi     :      0.94s CPU      0.98s WALL (     437 calls)
                                        0.98s GPU  (     437 calls)
     add_vuspsi   :      0.02s CPU      0.10s WALL (     437 calls)
                                        0.10s GPU  (     437 calls)

     General routines
     calbec       :      0.11s CPU      0.27s WALL (     605 calls)
     fft          :     16.76s CPU     21.11s WALL (    2038 calls)
                                        0.54s GPU  (    1878 calls)
     ffts         :      8.15s CPU     10.68s WALL (     318 calls)
                                        0.02s GPU  (     158 calls)
     fftw         :      0.02s CPU      0.93s WALL (    1032 calls)
                                        0.92s GPU  (    1032 calls)
     interpolate  :     26.99s CPU     33.61s WALL (     160 calls)
 
     Parallel routines
 
     PWSCF        :   1m24.63s CPU   1m34.91s WALL

 
   This run was terminated on:   8: 2:34   6May2026            

=------------------------------------------------------------------------------=
   JOB DONE.
=------------------------------------------------------------------------------=
Warning: ieee_invalid is signaling
Warning: ieee_divide_by_zero is signaling
Warning: ieee_inexact is signaling
FORTRAN STOP
