--------------------------------------------------------------------------
WARNING: Open MPI tried to bind a process but failed.  This is a
warning only; your job will continue, though performance may
be degraded.

  Local host:        3253031b5b37
  Application name:  /root/qe-7.3.1/bin/pw.x
  Error message:     failed to bind memory
  Location:          ../../../../../orte/mca/rtc/hwloc/rtc_hwloc.c:447

--------------------------------------------------------------------------

     Program PWSCF v.7.3.1 starts on  6May2026 at  8: 6:28 

     This program is part of the open-source Quantum ESPRESSO suite
     for quantum simulation of materials; please cite
         "P. Giannozzi et al., J. Phys.:Condens. Matter 21 395502 (2009);
         "P. Giannozzi et al., J. Phys.:Condens. Matter 29 465901 (2017);
         "P. Giannozzi et al., J. Chem. Phys. 152 154105 (2020);
          URL http://www.quantum-espresso.org", 
     in publications or presentations arising from this work. More details at
     http://www.quantum-espresso.org/quote

     Parallel version (MPI & OpenMP), running on       8 processor cores
     Number of MPI processes:                 1
     Threads/MPI process:                     8

     MPI processes distributed on     1 nodes
     89785 MiB available memory on the printing compute node when the environment starts
 
     Reading input from atom_S.in

     Current dimensions of program PWSCF are:
     Max number of different atomic species (ntypx) = 10
     Max number of k-points (npk) =  40000
     Max angular momentum in pseudopotentials (lmaxx) =  4
     file S.UPF: wavefunction(s)  3S 3P renormalized
     Message from routine setup:
     using ibrav=0 with symmetry is DISCOURAGED, use correct ibrav instead
 
     Subspace diagonalization in iterative solution of the eigenvalue problem:
     a serial algorithm will be used

 
     G-vector sticks info
     --------------------
     sticks:   dense  smooth     PW     G-vecs:    dense   smooth      PW
     Sum       11513    7685   1917               929121   505887   63077
 
     Using Slab Decomposition
 


     bravais-lattice index     =            0
     lattice parameter (alat)  =      28.3459  a.u.
     unit-cell volume          =   22775.6289 (a.u.)^3
     number of atoms/cell      =            1
     number of atomic types    =            1
     number of electrons       =         6.00
     number of Kohn-Sham states=            7
     kinetic-energy cutoff     =      30.0000  Ry
     charge density cutoff     =     180.0000  Ry
     scf convergence threshold =      1.0E-07
     mixing beta               =       0.4000
     number of iterations used =            8  plain     mixing
     Exchange-correlation= SLA  PW   PBX  PBC
                           (   1   4   3   4   0   0   0)

     GPU acceleration is ACTIVE.  1 visible GPUs per MPI rank


     celldm(1)=  28.345892  celldm(2)=   0.000000  celldm(3)=   0.000000
     celldm(4)=   0.000000  celldm(5)=   0.000000  celldm(6)=   0.000000

     crystal axes: (cart. coord. in units of alat)
               a(1) = (   1.000000   0.000000   0.000000 )  
               a(2) = (   0.000000   1.000000   0.000000 )  
               a(3) = (   0.000000   0.000000   1.000000 )  

     reciprocal axes: (cart. coord. in units 2 pi/alat)
               b(1) = (  1.000000  0.000000  0.000000 )  
               b(2) = (  0.000000  1.000000  0.000000 )  
               b(3) = (  0.000000  0.000000  1.000000 )  


     PseudoPot. # 1 for S  read from file:
     /root/qe_pseudos/S.UPF
     MD5 check sum: fb45dfebcf3e72a4e1bd4a866ec2e262
     Pseudo is Projector augmented-wave + core cor, Zval =  6.0
     Generated using &quot;atomic&quot; code by A. Dal Corso  v.6.3
     Shape of augmentation charge: PSQ
     Using radial grid of 1151 points,  6 beta functions with: 
                l(1) =   0
                l(2) =   0
                l(3) =   1
                l(4) =   1
                l(5) =   2
                l(6) =   2
     Q(r) pseudized with 0 coefficients 


     atomic species   valence    mass     pseudopotential
     S                 6.00    32.06000     S ( 1.00)

     Starting magnetic structure 
     atomic species   magnetization
     S               0.500

     48 Sym. Ops., with inversion, found



   Cartesian axes

     site n.     atom                  positions (alat units)
         1        S      tau(   1) = (   0.5000000   0.5000000   0.5000000  )

     number of k points=     1  Methfessel-Paxton smearing, width (Ry)=  0.0100
                       cart. coord. in units 2pi/alat
        k(    1) = (   0.0000000   0.0000000   0.0000000), wk =   1.0000000

     Dense  grid:   929121 G-vectors     FFT dimensions: ( 125, 125, 125)

     Smooth grid:   505887 G-vectors     FFT dimensions: ( 100, 100, 100)

     Estimated max dynamical RAM per process >       3.70 GB
     Generating pointlists ...
     new r_m :   0.4125 (alat units) 11.6927 (a.u.) for type    1

     Initial potential from superposition of free atoms

     starting charge       6.0000, renormalised to       6.0000

     negative rho (up, down):  2.083E-03 6.942E-04
     Starting wfcs are    4 randomized atomic wfcs +    3 random wfcs
     Checking if some PAW data can be deallocated... 

     total cpu time spent up to now is       11.7 secs

     Self-consistent Calculation

     iteration #  1     ecut=    30.00 Ry     beta= 0.40
     Davidson diagonalization with overlap
     ethr =  1.00E-02,  avg # of iterations =  6.0

     Threshold (ethr) on eigenvalues was too large:
     Diagonalizing with lowered threshold

     Davidson diagonalization with overlap
     ethr =  8.77E-05,  avg # of iterations = 12.0

     negative rho (up, down):  1.847E-03 7.229E-04

     total cpu time spent up to now is       14.4 secs

     total energy              =     -66.05065423 Ry
     estimated scf accuracy    <       0.00504117 Ry

     total magnetization       =     2.00 Bohr mag/cell
     absolute magnetization    =     2.00 Bohr mag/cell

     iteration #  2     ecut=    30.00 Ry     beta= 0.40
     Davidson diagonalization with overlap
     ethr =  8.40E-05,  avg # of iterations =  1.5

     negative rho (up, down):  1.723E-03 7.968E-04

     total cpu time spent up to now is       16.3 secs

     total energy              =     -66.05723608 Ry
     estimated scf accuracy    <       0.00181582 Ry

     total magnetization       =     2.00 Bohr mag/cell
     absolute magnetization    =     2.00 Bohr mag/cell

     iteration #  3     ecut=    30.00 Ry     beta= 0.40
     Davidson diagonalization with overlap
     ethr =  3.03E-05,  avg # of iterations =  6.5

     negative rho (up, down):  1.610E-03 8.039E-04

     total cpu time spent up to now is       19.1 secs

     total energy              =     -66.05760131 Ry
     estimated scf accuracy    <       0.00011107 Ry

     total magnetization       =     2.00 Bohr mag/cell
     absolute magnetization    =     2.00 Bohr mag/cell

     iteration #  4     ecut=    30.00 Ry     beta= 0.40
     Davidson diagonalization with overlap
     c_bands:  1 eigenvalues not converged
     ethr =  1.85E-06,  avg # of iterations = 15.5

     negative rho (up, down):  1.555E-03 7.865E-04

     total cpu time spent up to now is       22.8 secs

     total energy              =     -66.05763274 Ry
     estimated scf accuracy    <       0.00013014 Ry

     total magnetization       =     2.00 Bohr mag/cell
     absolute magnetization    =     2.00 Bohr mag/cell

     iteration #  5     ecut=    30.00 Ry     beta= 0.40
     Davidson diagonalization with overlap
     ethr =  1.85E-06,  avg # of iterations =  2.0

     negative rho (up, down):  1.512E-03 7.977E-04

     total cpu time spent up to now is       24.9 secs

     total energy              =     -66.05766797 Ry
     estimated scf accuracy    <       0.00000118 Ry

     total magnetization       =     2.00 Bohr mag/cell
     absolute magnetization    =     2.00 Bohr mag/cell

     iteration #  6     ecut=    30.00 Ry     beta= 0.40
     Davidson diagonalization with overlap
     ethr =  1.96E-08,  avg # of iterations =  2.5

     negative rho (up, down):  1.490E-03 7.971E-04

     total cpu time spent up to now is       26.9 secs

     total energy              =     -66.05766634 Ry
     estimated scf accuracy    <       0.00000522 Ry

     total magnetization       =     2.00 Bohr mag/cell
     absolute magnetization    =     2.00 Bohr mag/cell

     iteration #  7     ecut=    30.00 Ry     beta= 0.40
     Davidson diagonalization with overlap
     ethr =  1.96E-08,  avg # of iterations =  2.0

     negative rho (up, down):  1.457E-03 8.024E-04
 
     Magnetic moment per site  (integrated on atomic sphere of radius R)
     atom   1 (R=0.413)  charge=  6.0000  magn=  2.0000

     total cpu time spent up to now is       28.6 secs

     End of self-consistent calculation

 ------ SPIN UP ------------


          k = 0.0000 0.0000 0.0000 ( 63077 PWs)   bands (ev):

   -17.9346  -7.6222  -7.6222  -7.6222  -0.5151   0.0723   0.3214

 ------ SPIN DOWN ----------


          k = 0.0000 0.0000 0.0000 ( 63077 PWs)   bands (ev):

   -16.0630  -5.9116  -5.9116  -5.9116  -0.3771   0.1894   0.3791

     the Fermi energy is    -5.9390 ev

!    total energy              =     -66.05766759 Ry
     total all-electron energy =      -798.158788 Ry
     estimated scf accuracy    <       0.00000009 Ry
     smearing contrib. (-TS)   =      -0.00373359 Ry
     internal energy E=F+TS    =     -66.05393400 Ry

     The total energy is F=E-TS. E is the sum of the following terms:
     one-electron contribution =     -24.76011948 Ry
     hartree contribution      =      13.26519942 Ry
     xc contribution           =      -4.83277259 Ry
     ewald contribution        =      -3.60343966 Ry
     one-center paw contrib.   =     -46.12280169 Ry

     total magnetization       =     2.00 Bohr mag/cell
     absolute magnetization    =     2.00 Bohr mag/cell

     convergence has been achieved in   7 iterations

     negative rho (up, down):  1.457E-03 8.024E-04

     Forces acting on atoms (cartesian axes, Ry/au):

     atom    1 type  1   force =     0.00000000    0.00000000    0.00000000

     Total force =     0.000000     Total SCF correction =     0.000000


     Computing stress (Cartesian axis) and pressure


     negative rho (up, down):  1.457E-03 8.024E-04
          total   stress  (Ry/bohr**3)                   (kbar)     P=       -0.00
  -0.00000002   0.00000000   0.00000000           -0.00        0.00        0.00
   0.00000000  -0.00000002   0.00000000            0.00       -0.00        0.00
   0.00000000   0.00000000  -0.00000002            0.00        0.00       -0.00


     Writing all to output data dir /root/qe_scratch/atom_S.save/ :
     XML data file, charge density, pseudopotentials, collected wavefunctions
 
     init_run     :      8.39s CPU     11.41s WALL (       1 calls)
     electrons    :     14.94s CPU     16.94s WALL (       1 calls)
     forces       :      0.17s CPU      0.21s WALL (       1 calls)
     stress       :      0.39s CPU      0.40s WALL (       1 calls)

     Called by init_run:
     wfcinit      :      0.15s CPU      0.32s WALL (       1 calls)
     potinit      :      7.23s CPU      9.78s WALL (       1 calls)
     hinit0       :      0.29s CPU      0.40s WALL (       1 calls)

     Called by electrons:
     c_bands      :      3.55s CPU      3.57s WALL (       8 calls)
     sum_band     :      1.41s CPU      1.46s WALL (       8 calls)
     v_of_rho     :      0.78s CPU      1.13s WALL (       8 calls)
     newd         :      0.28s CPU      0.34s WALL (       8 calls)
                                        0.34s GPU  (       8 calls)
     PAW_pot      :      6.61s CPU      7.90s WALL (       8 calls)
     mix_rho      :      0.68s CPU      0.80s WALL (       8 calls)

     Called by c_bands:
     init_us_2    :      0.01s CPU      0.01s WALL (      38 calls)
     cegterg      :      3.46s CPU      3.48s WALL (      16 calls)

     Called by *egterg:
     cdiaghg      :      0.08s CPU      0.09s WALL (     110 calls)
                                        0.09s GPU  (     110 calls)
     h_psi        :      0.30s CPU      0.46s WALL (     114 calls)
                                        0.46s GPU  (     114 calls)
     s_psi        :      0.01s CPU      0.01s WALL (     114 calls)
     g_psi        :      0.00s CPU      0.00s WALL (      96 calls)
                                        0.00s GPU  (      96 calls)

     Called by h_psi:
     h_psi:calbec :      0.10s CPU      0.29s WALL (     114 calls)
                                        0.29s GPU  (     114 calls)
     vloc_psi     :      0.13s CPU      0.14s WALL (     114 calls)
                                        0.14s GPU  (     114 calls)
     add_vuspsi   :      0.01s CPU      0.02s WALL (     114 calls)
                                        0.02s GPU  (     114 calls)

     General routines
     calbec       :      0.10s CPU      0.25s WALL (     140 calls)
     fft          :      5.57s CPU      7.46s WALL (     240 calls)
                                        0.07s GPU  (     224 calls)
     ffts         :      2.37s CPU      3.11s WALL (      32 calls)
                                        0.00s GPU  (      16 calls)
     fftw         :      0.01s CPU      0.12s WALL (     244 calls)
                                        0.11s GPU  (     244 calls)
     interpolate  :      8.14s CPU     10.77s WALL (      16 calls)
 
     Parallel routines
 
     PWSCF        :     24.35s CPU     29.58s WALL

 
   This run was terminated on:   8: 6:58   6May2026            

=------------------------------------------------------------------------------=
   JOB DONE.
=------------------------------------------------------------------------------=
Warning: ieee_invalid is signaling
Warning: ieee_divide_by_zero is signaling
Warning: ieee_inexact is signaling
FORTRAN STOP
