--------------------------------------------------------------------------
WARNING: Open MPI tried to bind a process but failed.  This is a
warning only; your job will continue, though performance may
be degraded.

  Local host:        3253031b5b37
  Application name:  /root/qe-7.3.1/bin/pw.x
  Error message:     failed to bind memory
  Location:          ../../../../../orte/mca/rtc/hwloc/rtc_hwloc.c:447

--------------------------------------------------------------------------

     Program PWSCF v.7.3.1 starts on  6May2026 at  8:13:19 

     This program is part of the open-source Quantum ESPRESSO suite
     for quantum simulation of materials; please cite
         "P. Giannozzi et al., J. Phys.:Condens. Matter 21 395502 (2009);
         "P. Giannozzi et al., J. Phys.:Condens. Matter 29 465901 (2017);
         "P. Giannozzi et al., J. Chem. Phys. 152 154105 (2020);
          URL http://www.quantum-espresso.org", 
     in publications or presentations arising from this work. More details at
     http://www.quantum-espresso.org/quote

     Parallel version (MPI & OpenMP), running on       8 processor cores
     Number of MPI processes:                 1
     Threads/MPI process:                     8

     MPI processes distributed on     1 nodes
     89104 MiB available memory on the printing compute node when the environment starts
 
     Reading input from atom_W.in

     Current dimensions of program PWSCF are:
     Max number of different atomic species (ntypx) = 10
     Max number of k-points (npk) =  40000
     Max angular momentum in pseudopotentials (lmaxx) =  4
     file W.UPF: wavefunction(s)  6S 5P 5D renormalized
     Message from routine setup:
     using ibrav=0 with symmetry is DISCOURAGED, use correct ibrav instead
 
     Subspace diagonalization in iterative solution of the eigenvalue problem:
     a serial algorithm will be used

 
     G-vector sticks info
     --------------------
     sticks:   dense  smooth     PW     G-vecs:    dense   smooth      PW
     Sum       11513    7685   1917               929121   505887   63077
 
     Using Slab Decomposition
 


     bravais-lattice index     =            0
     lattice parameter (alat)  =      28.3459  a.u.
     unit-cell volume          =   22775.6289 (a.u.)^3
     number of atoms/cell      =            1
     number of atomic types    =            1
     number of electrons       =        14.00
     number of Kohn-Sham states=           11
     kinetic-energy cutoff     =      30.0000  Ry
     charge density cutoff     =     180.0000  Ry
     scf convergence threshold =      1.0E-07
     mixing beta               =       0.4000
     number of iterations used =            8  plain     mixing
     Exchange-correlation= SLA  PW   PBX  PBC
                           (   1   4   3   4   0   0   0)

     GPU acceleration is ACTIVE.  1 visible GPUs per MPI rank


     celldm(1)=  28.345892  celldm(2)=   0.000000  celldm(3)=   0.000000
     celldm(4)=   0.000000  celldm(5)=   0.000000  celldm(6)=   0.000000

     crystal axes: (cart. coord. in units of alat)
               a(1) = (   1.000000   0.000000   0.000000 )  
               a(2) = (   0.000000   1.000000   0.000000 )  
               a(3) = (   0.000000   0.000000   1.000000 )  

     reciprocal axes: (cart. coord. in units 2 pi/alat)
               b(1) = (  1.000000  0.000000  0.000000 )  
               b(2) = (  0.000000  1.000000  0.000000 )  
               b(3) = (  0.000000  0.000000  1.000000 )  


     PseudoPot. # 1 for W  read from file:
     /root/qe_pseudos/W.UPF
     MD5 check sum: 03c3df5b60893f488392c7401945500a
     Pseudo is Projector augmented-wave + core cor, Zval = 14.0
     Generated using &quot;atomic&quot; code by A. Dal Corso  v.6.2.2
     Shape of augmentation charge: PSQ
     Using radial grid of 1273 points,  6 beta functions with: 
                l(1) =   0
                l(2) =   0
                l(3) =   1
                l(4) =   1
                l(5) =   2
                l(6) =   2
     Q(r) pseudized with 0 coefficients 


     atomic species   valence    mass     pseudopotential
     W                14.00   183.84000     W ( 1.00)

     Starting magnetic structure 
     atomic species   magnetization
     W               0.500

     48 Sym. Ops., with inversion, found



   Cartesian axes

     site n.     atom                  positions (alat units)
         1        W      tau(   1) = (   0.5000000   0.5000000   0.5000000  )

     number of k points=     1  Methfessel-Paxton smearing, width (Ry)=  0.0100
                       cart. coord. in units 2pi/alat
        k(    1) = (   0.0000000   0.0000000   0.0000000), wk =   1.0000000

     Dense  grid:   929121 G-vectors     FFT dimensions: ( 125, 125, 125)

     Smooth grid:   505887 G-vectors     FFT dimensions: ( 100, 100, 100)

     Estimated max dynamical RAM per process >       3.71 GB

     Check: negative core charge=   -0.000001
     Generating pointlists ...
     new r_m :   0.4125 (alat units) 11.6927 (a.u.) for type    1

     Initial potential from superposition of free atoms

     starting charge      13.9994, renormalised to      14.0000

     negative rho (up, down):  3.291E-02 1.097E-02
     Starting wfcs are   13 randomized atomic wfcs
     Checking if some PAW data can be deallocated... 

     total cpu time spent up to now is       11.9 secs

     Self-consistent Calculation

     iteration #  1     ecut=    30.00 Ry     beta= 0.40
     Davidson diagonalization with overlap
     ethr =  1.00E-02,  avg # of iterations =  2.0

     negative rho (up, down):  2.724E-02 1.638E-02

     total cpu time spent up to now is       14.0 secs

     total energy              =    -759.55408430 Ry
     estimated scf accuracy    <       0.25124986 Ry

     total magnetization       =     6.00 Bohr mag/cell
     absolute magnetization    =     6.00 Bohr mag/cell

     iteration #  2     ecut=    30.00 Ry     beta= 0.40
     Davidson diagonalization with overlap
     ethr =  1.79E-03,  avg # of iterations =  1.0

     negative rho (up, down):  2.596E-02 2.323E-02

     total cpu time spent up to now is       15.9 secs

     total energy              =    -759.61396974 Ry
     estimated scf accuracy    <       0.07514320 Ry

     total magnetization       =     6.01 Bohr mag/cell
     absolute magnetization    =     6.01 Bohr mag/cell

     iteration #  3     ecut=    30.00 Ry     beta= 0.40
     Davidson diagonalization with overlap
     ethr =  5.37E-04,  avg # of iterations =  3.0

     negative rho (up, down):  2.205E-02 2.805E-02

     total cpu time spent up to now is       18.2 secs

     total energy              =    -759.63368146 Ry
     estimated scf accuracy    <       0.01784325 Ry

     total magnetization       =     6.07 Bohr mag/cell
     absolute magnetization    =     6.07 Bohr mag/cell

     iteration #  4     ecut=    30.00 Ry     beta= 0.40
     Davidson diagonalization with overlap
     ethr =  1.27E-04,  avg # of iterations =  2.0

     negative rho (up, down):  2.123E-02 3.720E-02

     total cpu time spent up to now is       20.2 secs

     total energy              =    -759.63786991 Ry
     estimated scf accuracy    <       0.02485760 Ry

     total magnetization       =     6.00 Bohr mag/cell
     absolute magnetization    =     6.00 Bohr mag/cell

     iteration #  5     ecut=    30.00 Ry     beta= 0.40
     Davidson diagonalization with overlap
     ethr =  1.27E-04,  avg # of iterations =  2.0

     negative rho (up, down):  2.004E-02 3.756E-02

     total cpu time spent up to now is       22.2 secs

     total energy              =    -759.64546020 Ry
     estimated scf accuracy    <       0.00072042 Ry

     total magnetization       =     6.00 Bohr mag/cell
     absolute magnetization    =     6.00 Bohr mag/cell

     iteration #  6     ecut=    30.00 Ry     beta= 0.40
     Davidson diagonalization with overlap
     ethr =  5.15E-06,  avg # of iterations =  6.0

     negative rho (up, down):  1.911E-02 3.543E-02

     total cpu time spent up to now is       24.4 secs

     total energy              =    -759.64434703 Ry
     estimated scf accuracy    <       0.00100976 Ry

     total magnetization       =     6.00 Bohr mag/cell
     absolute magnetization    =     6.00 Bohr mag/cell

     iteration #  7     ecut=    30.00 Ry     beta= 0.40
     Davidson diagonalization with overlap
     ethr =  5.15E-06,  avg # of iterations =  2.0

     negative rho (up, down):  1.827E-02 3.116E-02

     total cpu time spent up to now is       26.4 secs

     total energy              =    -759.64129029 Ry
     estimated scf accuracy    <       0.00016890 Ry

     total magnetization       =     6.00 Bohr mag/cell
     absolute magnetization    =     6.00 Bohr mag/cell

     iteration #  8     ecut=    30.00 Ry     beta= 0.40
     Davidson diagonalization with overlap
     ethr =  1.21E-06,  avg # of iterations =  4.5

     negative rho (up, down):  1.813E-02 3.119E-02

     total cpu time spent up to now is       28.7 secs

     total energy              =    -759.64151071 Ry
     estimated scf accuracy    <       0.00083035 Ry

     total magnetization       =     6.00 Bohr mag/cell
     absolute magnetization    =     6.00 Bohr mag/cell

     iteration #  9     ecut=    30.00 Ry     beta= 0.40
     Davidson diagonalization with overlap
     ethr =  1.21E-06,  avg # of iterations =  1.0

     negative rho (up, down):  1.808E-02 3.130E-02

     total cpu time spent up to now is       30.9 secs

     total energy              =    -759.64144913 Ry
     estimated scf accuracy    <       0.00073420 Ry

     total magnetization       =     6.00 Bohr mag/cell
     absolute magnetization    =     6.00 Bohr mag/cell

     iteration # 10     ecut=    30.00 Ry     beta= 0.40
     Davidson diagonalization with overlap
     ethr =  1.21E-06,  avg # of iterations =  1.0

     negative rho (up, down):  1.808E-02 3.141E-02

     total cpu time spent up to now is       33.0 secs

     total energy              =    -759.64146746 Ry
     estimated scf accuracy    <       0.00047027 Ry

     total magnetization       =     6.00 Bohr mag/cell
     absolute magnetization    =     6.00 Bohr mag/cell

     iteration # 11     ecut=    30.00 Ry     beta= 0.40
     Davidson diagonalization with overlap
     ethr =  1.21E-06,  avg # of iterations =  1.0

     negative rho (up, down):  1.806E-02 3.146E-02

     total cpu time spent up to now is       35.0 secs

     total energy              =    -759.64146070 Ry
     estimated scf accuracy    <       0.00032211 Ry

     total magnetization       =     6.00 Bohr mag/cell
     absolute magnetization    =     6.00 Bohr mag/cell

     iteration # 12     ecut=    30.00 Ry     beta= 0.40
     Davidson diagonalization with overlap
     ethr =  1.21E-06,  avg # of iterations =  1.0

     negative rho (up, down):  1.804E-02 3.149E-02

     total cpu time spent up to now is       37.0 secs

     total energy              =    -759.64145487 Ry
     estimated scf accuracy    <       0.00030012 Ry

     total magnetization       =     6.00 Bohr mag/cell
     absolute magnetization    =     6.00 Bohr mag/cell

     iteration # 13     ecut=    30.00 Ry     beta= 0.40
     Davidson diagonalization with overlap
     ethr =  1.21E-06,  avg # of iterations =  1.0

     negative rho (up, down):  1.803E-02 3.151E-02

     total cpu time spent up to now is       39.0 secs

     total energy              =    -759.64145471 Ry
     estimated scf accuracy    <       0.00028179 Ry

     total magnetization       =     6.00 Bohr mag/cell
     absolute magnetization    =     6.00 Bohr mag/cell

     iteration # 14     ecut=    30.00 Ry     beta= 0.40
     Davidson diagonalization with overlap
     ethr =  1.21E-06,  avg # of iterations =  1.0

     negative rho (up, down):  1.815E-02 3.147E-02

     total cpu time spent up to now is       41.2 secs

     total energy              =    -759.64133397 Ry
     estimated scf accuracy    <       0.00027923 Ry

     total magnetization       =     6.00 Bohr mag/cell
     absolute magnetization    =     6.00 Bohr mag/cell

     iteration # 15     ecut=    30.00 Ry     beta= 0.40
     Davidson diagonalization with overlap
     ethr =  1.21E-06,  avg # of iterations =  1.0

     negative rho (up, down):  1.820E-02 3.149E-02

     total cpu time spent up to now is       43.2 secs

     total energy              =    -759.64133657 Ry
     estimated scf accuracy    <       0.00013027 Ry

     total magnetization       =     6.00 Bohr mag/cell
     absolute magnetization    =     6.00 Bohr mag/cell

     iteration # 16     ecut=    30.00 Ry     beta= 0.40
     Davidson diagonalization with overlap
     ethr =  9.30E-07,  avg # of iterations =  1.0

     negative rho (up, down):  1.828E-02 3.231E-02

     total cpu time spent up to now is       45.2 secs

     total energy              =    -759.64212446 Ry
     estimated scf accuracy    <       0.00012044 Ry

     total magnetization       =     6.00 Bohr mag/cell
     absolute magnetization    =     6.00 Bohr mag/cell

     iteration # 17     ecut=    30.00 Ry     beta= 0.40
     Davidson diagonalization with overlap
     ethr =  8.60E-07,  avg # of iterations =  1.5

     negative rho (up, down):  1.822E-02 3.123E-02

     total cpu time spent up to now is       47.2 secs

     total energy              =    -759.64099463 Ry
     estimated scf accuracy    <       0.00002284 Ry

     total magnetization       =     6.00 Bohr mag/cell
     absolute magnetization    =     6.00 Bohr mag/cell

     iteration # 18     ecut=    30.00 Ry     beta= 0.40
     Davidson diagonalization with overlap
     ethr =  1.63E-07,  avg # of iterations =  1.5

     negative rho (up, down):  1.830E-02 3.094E-02

     total cpu time spent up to now is       49.2 secs

     total energy              =    -759.64084538 Ry
     estimated scf accuracy    <       0.00002274 Ry

     total magnetization       =     6.00 Bohr mag/cell
     absolute magnetization    =     6.00 Bohr mag/cell

     iteration # 19     ecut=    30.00 Ry     beta= 0.40
     Davidson diagonalization with overlap
     ethr =  1.62E-07,  avg # of iterations =  1.0

     negative rho (up, down):  1.845E-02 3.126E-02

     total cpu time spent up to now is       51.3 secs

     total energy              =    -759.64107045 Ry
     estimated scf accuracy    <       0.00003090 Ry

     total magnetization       =     6.00 Bohr mag/cell
     absolute magnetization    =     6.00 Bohr mag/cell

     iteration # 20     ecut=    30.00 Ry     beta= 0.40
     Davidson diagonalization with overlap
     ethr =  1.62E-07,  avg # of iterations =  1.5

     negative rho (up, down):  1.848E-02 3.151E-02

     total cpu time spent up to now is       53.4 secs

     total energy              =    -759.64135889 Ry
     estimated scf accuracy    <       0.00001088 Ry

     total magnetization       =     6.00 Bohr mag/cell
     absolute magnetization    =     6.00 Bohr mag/cell

     iteration # 21     ecut=    30.00 Ry     beta= 0.40
     Davidson diagonalization with overlap
     ethr =  7.77E-08,  avg # of iterations =  1.5

     negative rho (up, down):  1.848E-02 3.151E-02

     total cpu time spent up to now is       55.4 secs

     total energy              =    -759.64136149 Ry
     estimated scf accuracy    <       0.00000058 Ry

     total magnetization       =     6.00 Bohr mag/cell
     absolute magnetization    =     6.00 Bohr mag/cell

     iteration # 22     ecut=    30.00 Ry     beta= 0.40
     Davidson diagonalization with overlap
     ethr =  4.17E-09,  avg # of iterations =  1.5

     negative rho (up, down):  1.848E-02 3.147E-02

     total cpu time spent up to now is       57.3 secs

     total energy              =    -759.64129207 Ry
     estimated scf accuracy    <       0.00000046 Ry

     total magnetization       =     6.00 Bohr mag/cell
     absolute magnetization    =     6.00 Bohr mag/cell

     iteration # 23     ecut=    30.00 Ry     beta= 0.40
     Davidson diagonalization with overlap
     ethr =  3.27E-09,  avg # of iterations =  2.0

     negative rho (up, down):  1.849E-02 3.148E-02
 
     Magnetic moment per site  (integrated on atomic sphere of radius R)
     atom   1 (R=0.413)  charge= 13.9999  magn=  6.0000

     total cpu time spent up to now is       59.3 secs

     End of self-consistent calculation

 ------ SPIN UP ------------


          k = 0.0000 0.0000 0.0000 ( 63077 PWs)   bands (ev):

   -77.1450 -41.6982 -41.6982 -41.6982  -5.7588  -4.0486  -4.0486  -4.0483
    -4.0483  -4.0483  -1.4237

 ------ SPIN DOWN ----------


          k = 0.0000 0.0000 0.0000 ( 63077 PWs)   bands (ev):

   -75.4276 -39.3213 -39.3213 -39.3213  -3.0028  -0.8803  -0.8803  -0.8743
    -0.8743  -0.8743  -0.2174

     the Fermi energy is    -3.5108 ev

!    total energy              =    -759.64136400 Ry
     total all-electron energy =    -32285.257702 Ry
     estimated scf accuracy    <       0.00000008 Ry
     smearing contrib. (-TS)   =       0.00000007 Ry
     internal energy E=F+TS    =    -759.64136407 Ry

     The total energy is F=E-TS. E is the sum of the following terms:
     one-electron contribution =    -184.19657560 Ry
     hartree contribution      =      89.65274910 Ry
     xc contribution           =     -39.93556342 Ry
     ewald contribution        =     -19.61872676 Ry
     one-center paw contrib.   =    -605.54324739 Ry

     total magnetization       =     6.00 Bohr mag/cell
     absolute magnetization    =     6.00 Bohr mag/cell

     convergence has been achieved in  23 iterations

     negative rho (up, down):  1.849E-02 3.148E-02

     Forces acting on atoms (cartesian axes, Ry/au):

     atom    1 type  1   force =     0.00000000    0.00000000    0.00000000

     Total force =     0.000000     Total SCF correction =     0.000000


     Computing stress (Cartesian axis) and pressure


     negative rho (up, down):  1.849E-02 3.148E-02
          total   stress  (Ry/bohr**3)                   (kbar)     P=       -0.47
  -0.00000323   0.00000000   0.00000000           -0.47        0.00        0.00
   0.00000000  -0.00000323   0.00000000            0.00       -0.47        0.00
   0.00000000   0.00000000  -0.00000323            0.00        0.00       -0.47


     Writing all to output data dir /root/qe_scratch/atom_W.save/ :
     XML data file, charge density, pseudopotentials, collected wavefunctions
 
     init_run     :      8.41s CPU     11.48s WALL (       1 calls)
     electrons    :     41.96s CPU     47.46s WALL (       1 calls)
     forces       :      0.16s CPU      0.22s WALL (       1 calls)
     stress       :      0.38s CPU      0.41s WALL (       1 calls)

     Called by init_run:
     wfcinit      :      0.16s CPU      0.33s WALL (       1 calls)
     potinit      :      7.16s CPU      9.80s WALL (       1 calls)
     hinit0       :      0.35s CPU      0.43s WALL (       1 calls)

     Called by electrons:
     c_bands      :      1.95s CPU      1.97s WALL (      23 calls)
     sum_band     :      4.14s CPU      4.17s WALL (      23 calls)
     v_of_rho     :      2.71s CPU      3.32s WALL (      24 calls)
     newd         :      0.71s CPU      0.80s WALL (      24 calls)
                                        0.80s GPU  (      24 calls)
     PAW_pot      :     21.55s CPU     25.04s WALL (      24 calls)
     mix_rho      :      3.86s CPU      4.06s WALL (      23 calls)

     Called by c_bands:
     init_us_2    :      0.03s CPU      0.03s WALL (      98 calls)
     cegterg      :      1.58s CPU      1.60s WALL (      46 calls)

     Called by *egterg:
     cdiaghg      :      0.10s CPU      0.13s WALL (     128 calls)
                                        0.13s GPU  (     128 calls)
     h_psi        :      0.56s CPU      0.72s WALL (     130 calls)
                                        0.72s GPU  (     130 calls)
     s_psi        :      0.01s CPU      0.01s WALL (     130 calls)
     g_psi        :      0.00s CPU      0.00s WALL (      82 calls)
                                        0.00s GPU  (      82 calls)

     Called by h_psi:
     h_psi:calbec :      0.11s CPU      0.31s WALL (     130 calls)
                                        0.31s GPU  (     130 calls)
     vloc_psi     :      0.34s CPU      0.36s WALL (     130 calls)
                                        0.35s GPU  (     130 calls)
     add_vuspsi   :      0.01s CPU      0.03s WALL (     130 calls)
                                        0.03s GPU  (     130 calls)

     General routines
     calbec       :      0.12s CPU      0.26s WALL (     186 calls)
     fft          :      7.81s CPU     10.40s WALL (     638 calls)
                                        0.17s GPU  (     590 calls)
     ffts         :      3.55s CPU      4.63s WALL (      94 calls)
                                        0.01s GPU  (      46 calls)
     fftw         :      0.01s CPU      0.34s WALL (     306 calls)
                                        0.34s GPU  (     306 calls)
     interpolate  :     11.95s CPU     15.59s WALL (      48 calls)
 
     Parallel routines
 
     PWSCF        :     51.46s CPU   1m 0.31s WALL

 
   This run was terminated on:   8:14:19   6May2026            

=------------------------------------------------------------------------------=
   JOB DONE.
=------------------------------------------------------------------------------=
Warning: ieee_invalid is signaling
Warning: ieee_divide_by_zero is signaling
Warning: ieee_inexact is signaling
FORTRAN STOP
