--------------------------------------------------------------------------
WARNING: Open MPI tried to bind a process but failed.  This is a
warning only; your job will continue, though performance may
be degraded.

  Local host:        3253031b5b37
  Application name:  /root/qe-7.3.1/bin/pw.x
  Error message:     failed to bind memory
  Location:          ../../../../../orte/mca/rtc/hwloc/rtc_hwloc.c:447

--------------------------------------------------------------------------

     Program PWSCF v.7.3.1 starts on  6May2026 at  8: 9:43 

     This program is part of the open-source Quantum ESPRESSO suite
     for quantum simulation of materials; please cite
         "P. Giannozzi et al., J. Phys.:Condens. Matter 21 395502 (2009);
         "P. Giannozzi et al., J. Phys.:Condens. Matter 29 465901 (2017);
         "P. Giannozzi et al., J. Chem. Phys. 152 154105 (2020);
          URL http://www.quantum-espresso.org", 
     in publications or presentations arising from this work. More details at
     http://www.quantum-espresso.org/quote

     Parallel version (MPI & OpenMP), running on       8 processor cores
     Number of MPI processes:                 1
     Threads/MPI process:                     8

     MPI processes distributed on     1 nodes
     89436 MiB available memory on the printing compute node when the environment starts
 
     Reading input from atom_Ta.in

     Current dimensions of program PWSCF are:
     Max number of different atomic species (ntypx) = 10
     Max number of k-points (npk) =  40000
     Max angular momentum in pseudopotentials (lmaxx) =  4
     file Ta.UPF: wavefunction(s)  6S 5P 5D renormalized
     Message from routine setup:
     using ibrav=0 with symmetry is DISCOURAGED, use correct ibrav instead
 
     Subspace diagonalization in iterative solution of the eigenvalue problem:
     a serial algorithm will be used

 
     G-vector sticks info
     --------------------
     sticks:   dense  smooth     PW     G-vecs:    dense   smooth      PW
     Sum       11513    7685   1917               929121   505887   63077
 
     Using Slab Decomposition
 


     bravais-lattice index     =            0
     lattice parameter (alat)  =      28.3459  a.u.
     unit-cell volume          =   22775.6289 (a.u.)^3
     number of atoms/cell      =            1
     number of atomic types    =            1
     number of electrons       =        13.00
     number of Kohn-Sham states=           11
     kinetic-energy cutoff     =      30.0000  Ry
     charge density cutoff     =     180.0000  Ry
     scf convergence threshold =      1.0E-07
     mixing beta               =       0.4000
     number of iterations used =            8  plain     mixing
     Exchange-correlation= SLA  PW   PBX  PBC
                           (   1   4   3   4   0   0   0)

     GPU acceleration is ACTIVE.  1 visible GPUs per MPI rank


     celldm(1)=  28.345892  celldm(2)=   0.000000  celldm(3)=   0.000000
     celldm(4)=   0.000000  celldm(5)=   0.000000  celldm(6)=   0.000000

     crystal axes: (cart. coord. in units of alat)
               a(1) = (   1.000000   0.000000   0.000000 )  
               a(2) = (   0.000000   1.000000   0.000000 )  
               a(3) = (   0.000000   0.000000   1.000000 )  

     reciprocal axes: (cart. coord. in units 2 pi/alat)
               b(1) = (  1.000000  0.000000  0.000000 )  
               b(2) = (  0.000000  1.000000  0.000000 )  
               b(3) = (  0.000000  0.000000  1.000000 )  


     PseudoPot. # 1 for Ta read from file:
     /root/qe_pseudos/Ta.UPF
     MD5 check sum: 70e26a4a8c1f0430003df9f0e8af0a92
     Pseudo is Projector augmented-wave + core cor, Zval = 13.0
     Generated using &quot;atomic&quot; code by A. Dal Corso  v.6.3
     Shape of augmentation charge: PSQ
     Using radial grid of 1273 points,  6 beta functions with: 
                l(1) =   0
                l(2) =   0
                l(3) =   1
                l(4) =   1
                l(5) =   2
                l(6) =   2
     Q(r) pseudized with 0 coefficients 


     atomic species   valence    mass     pseudopotential
     Ta               13.00   180.94790     Ta( 1.00)

     Starting magnetic structure 
     atomic species   magnetization
     Ta              0.500

     48 Sym. Ops., with inversion, found



   Cartesian axes

     site n.     atom                  positions (alat units)
         1        Ta     tau(   1) = (   0.5000000   0.5000000   0.5000000  )

     number of k points=     1  Methfessel-Paxton smearing, width (Ry)=  0.0100
                       cart. coord. in units 2pi/alat
        k(    1) = (   0.0000000   0.0000000   0.0000000), wk =   1.0000000

     Dense  grid:   929121 G-vectors     FFT dimensions: ( 125, 125, 125)

     Smooth grid:   505887 G-vectors     FFT dimensions: ( 100, 100, 100)

     Estimated max dynamical RAM per process >       3.71 GB

     Check: negative core charge=   -0.000001
     Generating pointlists ...
     new r_m :   0.4125 (alat units) 11.6927 (a.u.) for type    1

     Initial potential from superposition of free atoms

     starting charge      12.9992, renormalised to      13.0000

     negative rho (up, down):  3.397E-02 1.132E-02
     Starting wfcs are   10 randomized atomic wfcs +    1 random wfcs
     Checking if some PAW data can be deallocated... 

     total cpu time spent up to now is       11.9 secs

     Self-consistent Calculation

     iteration #  1     ecut=    30.00 Ry     beta= 0.40
     Davidson diagonalization with overlap
     ethr =  1.00E-02,  avg # of iterations =  8.0

     negative rho (up, down):  2.897E-02 1.543E-02

     total cpu time spent up to now is       15.3 secs

     total energy              =    -726.36717703 Ry
     estimated scf accuracy    <       0.24605842 Ry

     total magnetization       =     5.01 Bohr mag/cell
     absolute magnetization    =     5.02 Bohr mag/cell

     iteration #  2     ecut=    30.00 Ry     beta= 0.40
     Davidson diagonalization with overlap
     ethr =  1.89E-03,  avg # of iterations =  1.5

     negative rho (up, down):  2.585E-02 1.738E-02

     total cpu time spent up to now is       17.1 secs

     total energy              =    -726.43343071 Ry
     estimated scf accuracy    <       0.12100792 Ry

     total magnetization       =     2.98 Bohr mag/cell
     absolute magnetization    =     2.98 Bohr mag/cell

     iteration #  3     ecut=    30.00 Ry     beta= 0.40
     Davidson diagonalization with overlap
     ethr =  9.31E-04,  avg # of iterations =  1.0

     negative rho (up, down):  2.408E-02 1.810E-02

     total cpu time spent up to now is       19.0 secs

     total energy              =    -726.47032830 Ry
     estimated scf accuracy    <       0.05459414 Ry

     total magnetization       =     2.95 Bohr mag/cell
     absolute magnetization    =     2.96 Bohr mag/cell

     iteration #  4     ecut=    30.00 Ry     beta= 0.40
     Davidson diagonalization with overlap
     ethr =  4.20E-04,  avg # of iterations =  2.0

     negative rho (up, down):  2.313E-02 1.921E-02

     total cpu time spent up to now is       21.1 secs

     total energy              =    -726.47566790 Ry
     estimated scf accuracy    <       0.00950280 Ry

     total magnetization       =     2.99 Bohr mag/cell
     absolute magnetization    =     2.99 Bohr mag/cell

     iteration #  5     ecut=    30.00 Ry     beta= 0.40
     Davidson diagonalization with overlap
     ethr =  7.31E-05,  avg # of iterations =  5.5

     negative rho (up, down):  2.273E-02 2.001E-02

     total cpu time spent up to now is       23.9 secs

     total energy              =    -726.47476412 Ry
     estimated scf accuracy    <       0.00298090 Ry

     total magnetization       =     3.00 Bohr mag/cell
     absolute magnetization    =     3.00 Bohr mag/cell

     iteration #  6     ecut=    30.00 Ry     beta= 0.40
     Davidson diagonalization with overlap
     ethr =  2.29E-05,  avg # of iterations =  3.0

     negative rho (up, down):  2.231E-02 2.032E-02

     total cpu time spent up to now is       26.0 secs

     total energy              =    -726.47494433 Ry
     estimated scf accuracy    <       0.00050675 Ry

     total magnetization       =     3.00 Bohr mag/cell
     absolute magnetization    =     3.00 Bohr mag/cell

     iteration #  7     ecut=    30.00 Ry     beta= 0.40
     Davidson diagonalization with overlap
     ethr =  3.90E-06,  avg # of iterations =  1.5

     negative rho (up, down):  2.212E-02 2.063E-02

     total cpu time spent up to now is       28.1 secs

     total energy              =    -726.47498008 Ry
     estimated scf accuracy    <       0.00025367 Ry

     total magnetization       =     3.00 Bohr mag/cell
     absolute magnetization    =     3.00 Bohr mag/cell

     iteration #  8     ecut=    30.00 Ry     beta= 0.40
     Davidson diagonalization with overlap
     ethr =  1.95E-06,  avg # of iterations =  3.0

     negative rho (up, down):  2.197E-02 2.083E-02

     total cpu time spent up to now is       30.5 secs

     total energy              =    -726.47497379 Ry
     estimated scf accuracy    <       0.00004489 Ry

     total magnetization       =     3.00 Bohr mag/cell
     absolute magnetization    =     3.00 Bohr mag/cell

     iteration #  9     ecut=    30.00 Ry     beta= 0.40
     Davidson diagonalization with overlap
     ethr =  3.45E-07,  avg # of iterations =  2.0

     negative rho (up, down):  2.182E-02 2.086E-02

     total cpu time spent up to now is       32.4 secs

     total energy              =    -726.47499085 Ry
     estimated scf accuracy    <       0.00001891 Ry

     total magnetization       =     3.00 Bohr mag/cell
     absolute magnetization    =     3.00 Bohr mag/cell

     iteration # 10     ecut=    30.00 Ry     beta= 0.40
     Davidson diagonalization with overlap
     ethr =  1.45E-07,  avg # of iterations =  2.0

     negative rho (up, down):  2.176E-02 2.090E-02

     total cpu time spent up to now is       34.6 secs

     total energy              =    -726.47499398 Ry
     estimated scf accuracy    <       0.00000043 Ry

     total magnetization       =     3.00 Bohr mag/cell
     absolute magnetization    =     3.00 Bohr mag/cell

     iteration # 11     ecut=    30.00 Ry     beta= 0.40
     Davidson diagonalization with overlap
     ethr =  3.31E-09,  avg # of iterations =  2.0

     negative rho (up, down):  2.171E-02 2.091E-02

     total cpu time spent up to now is       36.9 secs

     total energy              =    -726.47499386 Ry
     estimated scf accuracy    <       0.00000030 Ry

     total magnetization       =     3.00 Bohr mag/cell
     absolute magnetization    =     3.00 Bohr mag/cell

     iteration # 12     ecut=    30.00 Ry     beta= 0.40
     Davidson diagonalization with overlap
     ethr =  2.35E-09,  avg # of iterations =  2.0

     negative rho (up, down):  2.166E-02 2.094E-02
 
     Magnetic moment per site  (integrated on atomic sphere of radius R)
     atom   1 (R=0.413)  charge= 12.9999  magn=  3.0000

     total cpu time spent up to now is       38.9 secs

     End of self-consistent calculation

 ------ SPIN UP ------------


          k = 0.0000 0.0000 0.0000 ( 63077 PWs)   bands (ev):

   -73.1780 -39.6401 -39.6401 -39.6401  -5.7603  -4.0792  -4.0792  -4.0792
    -4.0790  -4.0790  -1.5054

 ------ SPIN DOWN ----------


          k = 0.0000 0.0000 0.0000 ( 63077 PWs)   bands (ev):

   -72.1746 -38.2451 -38.2451 -38.2451  -4.5894  -2.4079  -2.4079  -2.4069
    -2.4069  -2.4069  -1.0227

     the Fermi energy is    -4.0629 ev

!    total energy              =    -726.47499394 Ry
     total all-electron energy =    -31209.181491 Ry
     estimated scf accuracy    <          9.1E-09 Ry
     smearing contrib. (-TS)   =      -0.00675578 Ry
     internal energy E=F+TS    =    -726.46823817 Ry

     The total energy is F=E-TS. E is the sum of the following terms:
     one-electron contribution =    -152.79520052 Ry
     hartree contribution      =      73.20568364 Ry
     xc contribution           =     -40.14337946 Ry
     ewald contribution        =     -16.91614706 Ry
     one-center paw contrib.   =    -589.81919477 Ry

     total magnetization       =     3.00 Bohr mag/cell
     absolute magnetization    =     3.00 Bohr mag/cell

     convergence has been achieved in  12 iterations

     negative rho (up, down):  2.166E-02 2.094E-02

     Forces acting on atoms (cartesian axes, Ry/au):

     atom    1 type  1   force =     0.00000000    0.00000000    0.00000000

     Total force =     0.000000     Total SCF correction =     0.000000


     Computing stress (Cartesian axis) and pressure


     negative rho (up, down):  2.166E-02 2.094E-02
          total   stress  (Ry/bohr**3)                   (kbar)     P=       -1.21
  -0.00000825   0.00000000   0.00000000           -1.21        0.00        0.00
   0.00000000  -0.00000825   0.00000000            0.00       -1.21        0.00
   0.00000000   0.00000000  -0.00000825            0.00        0.00       -1.21


     Writing all to output data dir /root/qe_scratch/atom_Ta.save/ :
     XML data file, charge density, pseudopotentials, collected wavefunctions
 
     init_run     :      8.57s CPU     11.54s WALL (       1 calls)
     electrons    :     24.01s CPU     27.04s WALL (       1 calls)
     forces       :      0.20s CPU      0.22s WALL (       1 calls)
     stress       :      0.39s CPU      0.41s WALL (       1 calls)

     Called by init_run:
     wfcinit      :      0.16s CPU      0.33s WALL (       1 calls)
     potinit      :      7.36s CPU      9.89s WALL (       1 calls)
     hinit0       :      0.33s CPU      0.43s WALL (       1 calls)

     Called by electrons:
     c_bands      :      3.68s CPU      3.69s WALL (      12 calls)
     sum_band     :      2.14s CPU      2.18s WALL (      12 calls)
     v_of_rho     :      1.46s CPU      1.84s WALL (      13 calls)
     newd         :      0.42s CPU      0.49s WALL (      13 calls)
                                        0.49s GPU  (      13 calls)
     PAW_pot      :     11.51s CPU     13.43s WALL (      13 calls)
     mix_rho      :      1.65s CPU      1.82s WALL (      12 calls)

     Called by c_bands:
     init_us_2    :      0.02s CPU      0.02s WALL (      54 calls)
     cegterg      :      3.49s CPU      3.49s WALL (      24 calls)

     Called by *egterg:
     cdiaghg      :      0.09s CPU      0.10s WALL (      91 calls)
                                        0.10s GPU  (      91 calls)
     h_psi        :      0.37s CPU      0.51s WALL (      93 calls)
                                        0.51s GPU  (      93 calls)
     s_psi        :      0.01s CPU      0.01s WALL (      93 calls)
     g_psi        :      0.00s CPU      0.00s WALL (      67 calls)
                                        0.00s GPU  (      67 calls)

     Called by h_psi:
     h_psi:calbec :      0.11s CPU      0.28s WALL (      93 calls)
                                        0.28s GPU  (      93 calls)
     vloc_psi     :      0.20s CPU      0.20s WALL (      93 calls)
                                        0.20s GPU  (      93 calls)
     add_vuspsi   :      0.01s CPU      0.02s WALL (      93 calls)
                                        0.02s GPU  (      93 calls)

     General routines
     calbec       :      0.11s CPU      0.25s WALL (     127 calls)
     fft          :      6.15s CPU      8.29s WALL (     363 calls)
                                        0.10s GPU  (     337 calls)
     ffts         :      2.88s CPU      3.71s WALL (      50 calls)
                                        0.00s GPU  (      24 calls)
     fftw         :      0.01s CPU      0.19s WALL (     210 calls)
                                        0.19s GPU  (     210 calls)
     interpolate  :      9.34s CPU     12.25s WALL (      26 calls)
 
     Parallel routines
 
     PWSCF        :     33.76s CPU     39.94s WALL

 
   This run was terminated on:   8:10:23   6May2026            

=------------------------------------------------------------------------------=
   JOB DONE.
=------------------------------------------------------------------------------=
Warning: ieee_invalid is signaling
Warning: ieee_divide_by_zero is signaling
Warning: ieee_inexact is signaling
FORTRAN STOP
