--------------------------------------------------------------------------
WARNING: Open MPI tried to bind a process but failed.  This is a
warning only; your job will continue, though performance may
be degraded.

  Local host:        3253031b5b37
  Application name:  /root/qe-7.3.1/bin/pw.x
  Error message:     failed to bind memory
  Location:          ../../../../../orte/mca/rtc/hwloc/rtc_hwloc.c:447

--------------------------------------------------------------------------

     Program PWSCF v.7.3.1 starts on  6May2026 at  7:58:33 

     This program is part of the open-source Quantum ESPRESSO suite
     for quantum simulation of materials; please cite
         "P. Giannozzi et al., J. Phys.:Condens. Matter 21 395502 (2009);
         "P. Giannozzi et al., J. Phys.:Condens. Matter 29 465901 (2017);
         "P. Giannozzi et al., J. Chem. Phys. 152 154105 (2020);
          URL http://www.quantum-espresso.org", 
     in publications or presentations arising from this work. More details at
     http://www.quantum-espresso.org/quote

     Parallel version (MPI & OpenMP), running on       8 processor cores
     Number of MPI processes:                 1
     Threads/MPI process:                     8

     MPI processes distributed on     1 nodes
     90364 MiB available memory on the printing compute node when the environment starts
 
     Reading input from atom_Ir.in

     Current dimensions of program PWSCF are:
     Max number of different atomic species (ntypx) = 10
     Max number of k-points (npk) =  40000
     Max angular momentum in pseudopotentials (lmaxx) =  4
     file Ir.UPF: wavefunction(s)  5f renormalized
     Message from routine setup:
     no reason to have ecutrho>4*ecutwfc
     Message from routine setup:
     using ibrav=0 with symmetry is DISCOURAGED, use correct ibrav instead
 
     Subspace diagonalization in iterative solution of the eigenvalue problem:
     a serial algorithm will be used

 
     G-vector sticks info
     --------------------
     sticks:   dense  smooth     PW     G-vecs:    dense   smooth      PW
     Sum       11513    7685   1917               929121   505887   63077
 
     Using Slab Decomposition
 


     bravais-lattice index     =            0
     lattice parameter (alat)  =      28.3459  a.u.
     unit-cell volume          =   22775.6289 (a.u.)^3
     number of atoms/cell      =            1
     number of atomic types    =            1
     number of electrons       =         9.00
     number of Kohn-Sham states=            9
     kinetic-energy cutoff     =      30.0000  Ry
     charge density cutoff     =     180.0000  Ry
     scf convergence threshold =      1.0E-07
     mixing beta               =       0.4000
     number of iterations used =            8  plain     mixing
     Exchange-correlation= PBE
                           (   1   4   3   4   0   0   0)

     GPU acceleration is ACTIVE.  1 visible GPUs per MPI rank


     celldm(1)=  28.345892  celldm(2)=   0.000000  celldm(3)=   0.000000
     celldm(4)=   0.000000  celldm(5)=   0.000000  celldm(6)=   0.000000

     crystal axes: (cart. coord. in units of alat)
               a(1) = (   1.000000   0.000000   0.000000 )  
               a(2) = (   0.000000   1.000000   0.000000 )  
               a(3) = (   0.000000   0.000000   1.000000 )  

     reciprocal axes: (cart. coord. in units 2 pi/alat)
               b(1) = (  1.000000  0.000000  0.000000 )  
               b(2) = (  0.000000  1.000000  0.000000 )  
               b(3) = (  0.000000  0.000000  1.000000 )  


     PseudoPot. # 1 for Ir read from file:
     /root/qe_pseudos/Ir.UPF
     MD5 check sum: 43543c89383571b4720bfbfb15a0b238
     Pseudo is Norm-conserving, Zval =  9.0
     Generated using FHI98PP, converted with fhi2upf.x v.5.0.2
     Using radial grid of  565 points,  3 beta functions with: 
                l(1) =   0
                l(2) =   2
                l(3) =   3

     atomic species   valence    mass     pseudopotential
     Ir                9.00   192.21700     Ir( 1.00)

     Starting magnetic structure 
     atomic species   magnetization
     Ir              0.500

     48 Sym. Ops., with inversion, found



   Cartesian axes

     site n.     atom                  positions (alat units)
         1        Ir     tau(   1) = (   0.5000000   0.5000000   0.5000000  )

     number of k points=     1  Methfessel-Paxton smearing, width (Ry)=  0.0100
                       cart. coord. in units 2pi/alat
        k(    1) = (   0.0000000   0.0000000   0.0000000), wk =   1.0000000

     Dense  grid:   929121 G-vectors     FFT dimensions: ( 125, 125, 125)

     Smooth grid:   505887 G-vectors     FFT dimensions: ( 100, 100, 100)

     Estimated max dynamical RAM per process >     949.00 MB
     Generating pointlists ...
     new r_m :   0.4125 (alat units) 11.6927 (a.u.) for type    1

     Initial potential from superposition of free atoms

     starting charge       8.9996, renormalised to       9.0000

     negative rho (up, down):  2.279E-04 7.598E-05
     Starting wfcs are   16 randomized atomic wfcs

     total cpu time spent up to now is       10.3 secs

     Self-consistent Calculation

     iteration #  1     ecut=    30.00 Ry     beta= 0.40
     Davidson diagonalization with overlap
     ethr =  1.00E-02,  avg # of iterations =  2.0

     negative rho (up, down):  1.137E-04 2.735E-05

     total cpu time spent up to now is       11.2 secs

     total energy              =     -39.93798189 Ry
     estimated scf accuracy    <       0.33711053 Ry

     total magnetization       =     3.00 Bohr mag/cell
     absolute magnetization    =     3.00 Bohr mag/cell

     iteration #  2     ecut=    30.00 Ry     beta= 0.40
     Davidson diagonalization with overlap
     ethr =  3.75E-03,  avg # of iterations =  1.0

     negative rho (up, down):  8.448E-05 1.061E-05

     total cpu time spent up to now is       12.0 secs

     total energy              =     -39.97761579 Ry
     estimated scf accuracy    <       0.01617535 Ry

     total magnetization       =     3.00 Bohr mag/cell
     absolute magnetization    =     3.06 Bohr mag/cell

     iteration #  3     ecut=    30.00 Ry     beta= 0.40
     Davidson diagonalization with overlap
     ethr =  1.80E-04,  avg # of iterations =  3.5

     negative rho (up, down):  9.612E-05 1.669E-05

     total cpu time spent up to now is       12.9 secs

     total energy              =     -39.98355882 Ry
     estimated scf accuracy    <       0.00111410 Ry

     total magnetization       =     3.00 Bohr mag/cell
     absolute magnetization    =     3.02 Bohr mag/cell

     iteration #  4     ecut=    30.00 Ry     beta= 0.40
     Davidson diagonalization with overlap
     ethr =  1.24E-05,  avg # of iterations =  3.0

     negative rho (up, down):  9.566E-06 2.576E-07

     total cpu time spent up to now is       13.7 secs

     total energy              =     -39.98247045 Ry
     estimated scf accuracy    <       0.01978301 Ry

     total magnetization       =     3.00 Bohr mag/cell
     absolute magnetization    =     3.06 Bohr mag/cell

     iteration #  5     ecut=    30.00 Ry     beta= 0.40
     Davidson diagonalization with overlap
     ethr =  1.24E-05,  avg # of iterations =  2.0

     negative rho (up, down):  2.359E-05 3.648E-06

     total cpu time spent up to now is       14.7 secs

     total energy              =     -39.98525525 Ry
     estimated scf accuracy    <       0.00765152 Ry

     total magnetization       =     3.00 Bohr mag/cell
     absolute magnetization    =     3.06 Bohr mag/cell

     iteration #  6     ecut=    30.00 Ry     beta= 0.40
     Davidson diagonalization with overlap
     ethr =  1.24E-05,  avg # of iterations =  2.0

     negative rho (up, down):  7.602E-05 1.768E-05

     total cpu time spent up to now is       15.6 secs

     total energy              =     -39.98729703 Ry
     estimated scf accuracy    <       0.00108369 Ry

     total magnetization       =     3.00 Bohr mag/cell
     absolute magnetization    =     3.05 Bohr mag/cell

     iteration #  7     ecut=    30.00 Ry     beta= 0.40
     Davidson diagonalization with overlap
     ethr =  1.20E-05,  avg # of iterations =  1.5

     negative rho (up, down):  2.350E-05 5.152E-06

     total cpu time spent up to now is       16.5 secs

     total energy              =     -39.98689406 Ry
     estimated scf accuracy    <       0.00328370 Ry

     total magnetization       =     3.00 Bohr mag/cell
     absolute magnetization    =     3.06 Bohr mag/cell

     iteration #  8     ecut=    30.00 Ry     beta= 0.40
     Davidson diagonalization with overlap
     ethr =  1.20E-05,  avg # of iterations =  2.0

     negative rho (up, down):  9.237E-06 1.947E-06

     total cpu time spent up to now is       17.5 secs

     total energy              =     -39.98698959 Ry
     estimated scf accuracy    <       0.00096569 Ry

     total magnetization       =     3.00 Bohr mag/cell
     absolute magnetization    =     3.07 Bohr mag/cell

     iteration #  9     ecut=    30.00 Ry     beta= 0.40
     Davidson diagonalization with overlap
     ethr =  1.07E-05,  avg # of iterations =  1.0

     negative rho (up, down):  3.301E-06 6.343E-07

     total cpu time spent up to now is       18.4 secs

     total energy              =     -39.98703737 Ry
     estimated scf accuracy    <       0.00039396 Ry

     total magnetization       =     3.00 Bohr mag/cell
     absolute magnetization    =     3.07 Bohr mag/cell

     iteration # 10     ecut=    30.00 Ry     beta= 0.40
     Davidson diagonalization with overlap
     ethr =  4.38E-06,  avg # of iterations =  1.0

     negative rho (up, down):  1.026E-06 2.161E-07

     total cpu time spent up to now is       19.3 secs

     total energy              =     -39.98697602 Ry
     estimated scf accuracy    <       0.00048658 Ry

     total magnetization       =     3.00 Bohr mag/cell
     absolute magnetization    =     3.07 Bohr mag/cell

     iteration # 11     ecut=    30.00 Ry     beta= 0.40
     Davidson diagonalization with overlap
     ethr =  4.38E-06,  avg # of iterations =  1.0

     negative rho (up, down):  2.465E-07 5.342E-08

     total cpu time spent up to now is       20.2 secs

     total energy              =     -39.98698590 Ry
     estimated scf accuracy    <       0.00012507 Ry

     total magnetization       =     3.00 Bohr mag/cell
     absolute magnetization    =     3.07 Bohr mag/cell

     iteration # 12     ecut=    30.00 Ry     beta= 0.40
     Davidson diagonalization with overlap
     ethr =  1.39E-06,  avg # of iterations =  3.0

     negative rho (up, down):  4.279E-08 8.089E-09

     total cpu time spent up to now is       21.1 secs

     total energy              =     -39.98701276 Ry
     estimated scf accuracy    <       0.00000813 Ry

     total magnetization       =     3.00 Bohr mag/cell
     absolute magnetization    =     3.07 Bohr mag/cell

     iteration # 13     ecut=    30.00 Ry     beta= 0.40
     Davidson diagonalization with overlap
     ethr =  9.03E-08,  avg # of iterations =  1.5

     total cpu time spent up to now is       22.1 secs

     total energy              =     -39.98701329 Ry
     estimated scf accuracy    <       0.00000579 Ry

     total magnetization       =     3.00 Bohr mag/cell
     absolute magnetization    =     3.07 Bohr mag/cell

     iteration # 14     ecut=    30.00 Ry     beta= 0.40
     Davidson diagonalization with overlap
     ethr =  6.43E-08,  avg # of iterations =  1.0

     total cpu time spent up to now is       23.0 secs

     total energy              =     -39.98701336 Ry
     estimated scf accuracy    <       0.00000594 Ry

     total magnetization       =     3.00 Bohr mag/cell
     absolute magnetization    =     3.07 Bohr mag/cell

     iteration # 15     ecut=    30.00 Ry     beta= 0.40
     Davidson diagonalization with overlap
     ethr =  6.43E-08,  avg # of iterations =  1.0

     total cpu time spent up to now is       23.9 secs

     total energy              =     -39.98701433 Ry
     estimated scf accuracy    <       0.00000702 Ry

     total magnetization       =     3.00 Bohr mag/cell
     absolute magnetization    =     3.07 Bohr mag/cell

     iteration # 16     ecut=    30.00 Ry     beta= 0.40
     Davidson diagonalization with overlap
     ethr =  6.43E-08,  avg # of iterations =  1.5

     total cpu time spent up to now is       24.8 secs

     total energy              =     -39.98701614 Ry
     estimated scf accuracy    <       0.00000175 Ry

     total magnetization       =     3.00 Bohr mag/cell
     absolute magnetization    =     3.07 Bohr mag/cell

     iteration # 17     ecut=    30.00 Ry     beta= 0.40
     Davidson diagonalization with overlap
     ethr =  1.95E-08,  avg # of iterations =  1.0

     total cpu time spent up to now is       25.7 secs

     total energy              =     -39.98701560 Ry
     estimated scf accuracy    <       0.00000227 Ry

     total magnetization       =     3.00 Bohr mag/cell
     absolute magnetization    =     3.07 Bohr mag/cell

     iteration # 18     ecut=    30.00 Ry     beta= 0.40
     Davidson diagonalization with overlap
     ethr =  1.95E-08,  avg # of iterations =  2.0

     total cpu time spent up to now is       26.6 secs

     total energy              =     -39.98701630 Ry
     estimated scf accuracy    <       0.00000185 Ry

     total magnetization       =     3.00 Bohr mag/cell
     absolute magnetization    =     3.07 Bohr mag/cell

     iteration # 19     ecut=    30.00 Ry     beta= 0.40
     Davidson diagonalization with overlap
     ethr =  1.95E-08,  avg # of iterations =  1.0

     total cpu time spent up to now is       27.5 secs

     total energy              =     -39.98701631 Ry
     estimated scf accuracy    <       0.00000030 Ry

     total magnetization       =     3.00 Bohr mag/cell
     absolute magnetization    =     3.07 Bohr mag/cell

     iteration # 20     ecut=    30.00 Ry     beta= 0.40
     Davidson diagonalization with overlap
     ethr =  3.32E-09,  avg # of iterations =  1.5

     total cpu time spent up to now is       28.5 secs

     total energy              =     -39.98701630 Ry
     estimated scf accuracy    <       0.00000021 Ry

     total magnetization       =     3.00 Bohr mag/cell
     absolute magnetization    =     3.07 Bohr mag/cell

     iteration # 21     ecut=    30.00 Ry     beta= 0.40
     Davidson diagonalization with overlap
     ethr =  2.35E-09,  avg # of iterations =  1.0

     total cpu time spent up to now is       29.4 secs

     total energy              =     -39.98701631 Ry
     estimated scf accuracy    <       0.00000015 Ry

     total magnetization       =     3.00 Bohr mag/cell
     absolute magnetization    =     3.07 Bohr mag/cell

     iteration # 22     ecut=    30.00 Ry     beta= 0.40
     Davidson diagonalization with overlap
     ethr =  1.64E-09,  avg # of iterations =  1.0

     total cpu time spent up to now is       30.3 secs

     total energy              =     -39.98701608 Ry
     estimated scf accuracy    <       0.00000016 Ry

     total magnetization       =     3.00 Bohr mag/cell
     absolute magnetization    =     3.07 Bohr mag/cell

     iteration # 23     ecut=    30.00 Ry     beta= 0.40
     Davidson diagonalization with overlap
     ethr =  1.64E-09,  avg # of iterations =  2.0
 
     Magnetic moment per site  (integrated on atomic sphere of radius R)
     atom   1 (R=0.413)  charge=  9.0000  magn=  3.0000

     total cpu time spent up to now is       31.1 secs

     End of self-consistent calculation

 ------ SPIN UP ------------


          k = 0.0000 0.0000 0.0000 ( 63077 PWs)   bands (ev):

    -8.4090  -8.4090  -8.4086  -8.4086  -8.4086  -6.7241  -1.2601  -1.2601
    -1.2601

 ------ SPIN DOWN ----------


          k = 0.0000 0.0000 0.0000 ( 63077 PWs)   bands (ev):

    -5.6793  -5.5089  -5.5089  -5.5089  -5.5089  -5.5089  -0.9943  -0.9943
    -0.9943

     the Fermi energy is    -5.5262 ev

!    total energy              =     -39.98701613 Ry
     estimated scf accuracy    <          5.4E-09 Ry
     smearing contrib. (-TS)   =      -0.00610497 Ry
     internal energy E=F+TS    =     -39.98091116 Ry

     The total energy is F=E-TS. E is the sum of the following terms:
     one-electron contribution =     -53.90880119 Ry
     hartree contribution      =      29.19415093 Ry
     xc contribution           =      -7.15852174 Ry
     ewald contribution        =      -8.10773915 Ry

     total magnetization       =     3.00 Bohr mag/cell
     absolute magnetization    =     3.07 Bohr mag/cell

     convergence has been achieved in  23 iterations

     Forces acting on atoms (cartesian axes, Ry/au):

     atom    1 type  1   force =     0.00000000    0.00000000    0.00000000

     Total force =     0.000000     Total SCF correction =     0.000000


     Computing stress (Cartesian axis) and pressure

          total   stress  (Ry/bohr**3)                   (kbar)     P=       -0.68
  -0.00000460   0.00000000   0.00000000           -0.68        0.00        0.00
   0.00000000  -0.00000460   0.00000000            0.00       -0.68        0.00
   0.00000000   0.00000000  -0.00000460            0.00        0.00       -0.68


     Writing all to output data dir /root/qe_scratch/atom_Ir.save/ :
     XML data file, charge density, pseudopotentials, collected wavefunctions
 
     init_run     :      7.44s CPU     10.27s WALL (       1 calls)
     electrons    :     18.65s CPU     20.89s WALL (       1 calls)
     forces       :      0.13s CPU      0.15s WALL (       1 calls)
     stress       :      0.13s CPU      0.16s WALL (       1 calls)

     Called by init_run:
     wfcinit      :      0.18s CPU      0.36s WALL (       1 calls)
     potinit      :      6.43s CPU      8.84s WALL (       1 calls)
     hinit0       :      0.20s CPU      0.32s WALL (       1 calls)

     Called by electrons:
     c_bands      :      1.45s CPU      1.46s WALL (      23 calls)
     sum_band     :      2.78s CPU      2.80s WALL (      23 calls)
     v_of_rho     :      2.57s CPU      3.19s WALL (      24 calls)
     mix_rho      :      3.93s CPU      4.09s WALL (      23 calls)

     Called by c_bands:
     init_us_2    :      0.03s CPU      0.03s WALL (      98 calls)
     cegterg      :      1.14s CPU      1.15s WALL (      46 calls)

     Called by *egterg:
     cdiaghg      :      0.09s CPU      0.11s WALL (     121 calls)
                                        0.11s GPU  (     121 calls)
     h_psi        :      0.51s CPU      0.67s WALL (     123 calls)
                                        0.67s GPU  (     123 calls)
     g_psi        :      0.00s CPU      0.00s WALL (      75 calls)
                                        0.00s GPU  (      75 calls)

     Called by h_psi:
     h_psi:calbec :      0.13s CPU      0.34s WALL (     123 calls)
                                        0.34s GPU  (     123 calls)
     vloc_psi     :      0.28s CPU      0.29s WALL (     123 calls)
                                        0.29s GPU  (     123 calls)
     add_vuspsi   :      0.01s CPU      0.02s WALL (     123 calls)
                                        0.02s GPU  (     123 calls)

     General routines
     calbec       :      0.13s CPU      0.28s WALL (     133 calls)
     fft          :      7.74s CPU     10.34s WALL (     557 calls)
                                        0.14s GPU  (     509 calls)
     ffts         :      3.60s CPU      4.74s WALL (      94 calls)
                                        0.01s GPU  (      46 calls)
     fftw         :      0.01s CPU      0.28s WALL (     292 calls)
                                        0.27s GPU  (     292 calls)
     interpolate  :     11.97s CPU     15.69s WALL (      48 calls)
 
     Parallel routines
 
     PWSCF        :     26.57s CPU     31.88s WALL

 
   This run was terminated on:   7:59: 5   6May2026            

=------------------------------------------------------------------------------=
   JOB DONE.
=------------------------------------------------------------------------------=
Warning: ieee_invalid is signaling
Warning: ieee_divide_by_zero is signaling
Warning: ieee_inexact is signaling
FORTRAN STOP
