--------------------------------------------------------------------------
WARNING: Open MPI tried to bind a process but failed.  This is a
warning only; your job will continue, though performance may
be degraded.

  Local host:        3253031b5b37
  Application name:  /root/qe-7.3.1/bin/pw.x
  Error message:     failed to bind memory
  Location:          ../../../../../orte/mca/rtc/hwloc/rtc_hwloc.c:447

--------------------------------------------------------------------------

     Program PWSCF v.7.3.1 starts on  6May2026 at  7:51:25 

     This program is part of the open-source Quantum ESPRESSO suite
     for quantum simulation of materials; please cite
         "P. Giannozzi et al., J. Phys.:Condens. Matter 21 395502 (2009);
         "P. Giannozzi et al., J. Phys.:Condens. Matter 29 465901 (2017);
         "P. Giannozzi et al., J. Chem. Phys. 152 154105 (2020);
          URL http://www.quantum-espresso.org", 
     in publications or presentations arising from this work. More details at
     http://www.quantum-espresso.org/quote

     Parallel version (MPI & OpenMP), running on       8 processor cores
     Number of MPI processes:                 1
     Threads/MPI process:                     8

     MPI processes distributed on     1 nodes
     90925 MiB available memory on the printing compute node when the environment starts
 
     Reading input from atom_Bi.in

     Current dimensions of program PWSCF are:
     Max number of different atomic species (ntypx) = 10
     Max number of k-points (npk) =  40000
     Max angular momentum in pseudopotentials (lmaxx) =  4
     file Bi.UPF: wavefunction(s)  6P 5D renormalized
     Message from routine setup:
     using ibrav=0 with symmetry is DISCOURAGED, use correct ibrav instead
 
     Subspace diagonalization in iterative solution of the eigenvalue problem:
     a serial algorithm will be used

 
     G-vector sticks info
     --------------------
     sticks:   dense  smooth     PW     G-vecs:    dense   smooth      PW
     Sum       11513    7685   1917               929121   505887   63077
 
     Using Slab Decomposition
 


     bravais-lattice index     =            0
     lattice parameter (alat)  =      28.3459  a.u.
     unit-cell volume          =   22775.6289 (a.u.)^3
     number of atoms/cell      =            1
     number of atomic types    =            1
     number of electrons       =        15.00
     number of Kohn-Sham states=           12
     kinetic-energy cutoff     =      30.0000  Ry
     charge density cutoff     =     180.0000  Ry
     scf convergence threshold =      1.0E-07
     mixing beta               =       0.4000
     number of iterations used =            8  plain     mixing
     Exchange-correlation= SLA  PW   PBX  PBC
                           (   1   4   3   4   0   0   0)

     GPU acceleration is ACTIVE.  1 visible GPUs per MPI rank


     celldm(1)=  28.345892  celldm(2)=   0.000000  celldm(3)=   0.000000
     celldm(4)=   0.000000  celldm(5)=   0.000000  celldm(6)=   0.000000

     crystal axes: (cart. coord. in units of alat)
               a(1) = (   1.000000   0.000000   0.000000 )  
               a(2) = (   0.000000   1.000000   0.000000 )  
               a(3) = (   0.000000   0.000000   1.000000 )  

     reciprocal axes: (cart. coord. in units 2 pi/alat)
               b(1) = (  1.000000  0.000000  0.000000 )  
               b(2) = (  0.000000  1.000000  0.000000 )  
               b(3) = (  0.000000  0.000000  1.000000 )  


     PseudoPot. # 1 for Bi read from file:
     /root/qe_pseudos/Bi.UPF
     MD5 check sum: 266ded784ae3bc462508ed03f0f37963
     Pseudo is Projector augmented-wave + core cor, Zval = 15.0
     Generated using &quot;atomic&quot; code by A. Dal Corso  v.6.2.2
     Shape of augmentation charge: PSQ
     Using radial grid of 1283 points,  6 beta functions with: 
                l(1) =   0
                l(2) =   0
                l(3) =   1
                l(4) =   1
                l(5) =   2
                l(6) =   2
     Q(r) pseudized with 0 coefficients 


     atomic species   valence    mass     pseudopotential
     Bi               15.00   208.98040     Bi( 1.00)

     Starting magnetic structure 
     atomic species   magnetization
     Bi              0.500

     48 Sym. Ops., with inversion, found



   Cartesian axes

     site n.     atom                  positions (alat units)
         1        Bi     tau(   1) = (   0.5000000   0.5000000   0.5000000  )

     number of k points=     1  Methfessel-Paxton smearing, width (Ry)=  0.0100
                       cart. coord. in units 2pi/alat
        k(    1) = (   0.0000000   0.0000000   0.0000000), wk =   1.0000000

     Dense  grid:   929121 G-vectors     FFT dimensions: ( 125, 125, 125)

     Smooth grid:   505887 G-vectors     FFT dimensions: ( 100, 100, 100)

     Estimated max dynamical RAM per process >       3.71 GB
     Generating pointlists ...
     new r_m :   0.4125 (alat units) 11.6927 (a.u.) for type    1

     Initial potential from superposition of free atoms

     starting charge      14.9992, renormalised to      15.0000

     negative rho (up, down):  6.226E-02 2.075E-02
     Starting wfcs are    9 randomized atomic wfcs +    3 random wfcs
     Checking if some PAW data can be deallocated... 

     total cpu time spent up to now is       12.2 secs

     Self-consistent Calculation

     iteration #  1     ecut=    30.00 Ry     beta= 0.40
     Davidson diagonalization with overlap
     ethr =  1.00E-02,  avg # of iterations =  6.0

     negative rho (up, down):  5.205E-02 2.972E-02

     total cpu time spent up to now is       14.5 secs

     total energy              =    -905.56250990 Ry
     estimated scf accuracy    <       0.42098930 Ry

     total magnetization       =     3.00 Bohr mag/cell
     absolute magnetization    =     3.00 Bohr mag/cell

     iteration #  2     ecut=    30.00 Ry     beta= 0.40
     Davidson diagonalization with overlap
     ethr =  2.81E-03,  avg # of iterations =  1.0

     negative rho (up, down):  4.857E-02 4.515E-02

     total cpu time spent up to now is       16.4 secs

     total energy              =    -905.69467938 Ry
     estimated scf accuracy    <       0.15270735 Ry

     total magnetization       =     3.00 Bohr mag/cell
     absolute magnetization    =     3.00 Bohr mag/cell

     iteration #  3     ecut=    30.00 Ry     beta= 0.40
     Davidson diagonalization with overlap
     ethr =  1.02E-03,  avg # of iterations =  1.0

     negative rho (up, down):  4.357E-02 4.561E-02

     total cpu time spent up to now is       18.3 secs

     total energy              =    -905.69940785 Ry
     estimated scf accuracy    <       0.00043543 Ry

     total magnetization       =     3.00 Bohr mag/cell
     absolute magnetization    =     3.00 Bohr mag/cell

     iteration #  4     ecut=    30.00 Ry     beta= 0.40
     Davidson diagonalization with overlap
     c_bands:  1 eigenvalues not converged
     c_bands:  1 eigenvalues not converged
     ethr =  2.90E-06,  avg # of iterations = 20.0

     negative rho (up, down):  4.078E-02 4.664E-02

     total cpu time spent up to now is       21.3 secs

     total energy              =    -905.69997322 Ry
     estimated scf accuracy    <       0.00014534 Ry

     total magnetization       =     3.00 Bohr mag/cell
     absolute magnetization    =     3.00 Bohr mag/cell

     iteration #  5     ecut=    30.00 Ry     beta= 0.40
     Davidson diagonalization with overlap
     c_bands:  1 eigenvalues not converged
     ethr =  9.69E-07,  avg # of iterations = 13.0

     negative rho (up, down):  3.932E-02 4.755E-02

     total cpu time spent up to now is       25.4 secs

     total energy              =    -905.70022640 Ry
     estimated scf accuracy    <       0.00001856 Ry

     total magnetization       =     3.00 Bohr mag/cell
     absolute magnetization    =     3.00 Bohr mag/cell

     iteration #  6     ecut=    30.00 Ry     beta= 0.40
     Davidson diagonalization with overlap
     ethr =  1.24E-07,  avg # of iterations = 10.0

     negative rho (up, down):  3.854E-02 4.823E-02

     total cpu time spent up to now is       29.2 secs

     total energy              =    -905.70028815 Ry
     estimated scf accuracy    <       0.00000380 Ry

     total magnetization       =     3.00 Bohr mag/cell
     absolute magnetization    =     3.00 Bohr mag/cell

     iteration #  7     ecut=    30.00 Ry     beta= 0.40
     Davidson diagonalization with overlap
     ethr =  2.54E-08,  avg # of iterations =  2.0

     negative rho (up, down):  3.811E-02 4.868E-02

     total cpu time spent up to now is       31.4 secs

     total energy              =    -905.70031849 Ry
     estimated scf accuracy    <       0.00000017 Ry

     total magnetization       =     3.00 Bohr mag/cell
     absolute magnetization    =     3.00 Bohr mag/cell

     iteration #  8     ecut=    30.00 Ry     beta= 0.40
     Davidson diagonalization with overlap
     ethr =  1.10E-09,  avg # of iterations =  2.0

     negative rho (up, down):  3.744E-02 4.941E-02
 
     Magnetic moment per site  (integrated on atomic sphere of radius R)
     atom   1 (R=0.413)  charge= 14.9991  magn=  3.0000

     total cpu time spent up to now is       33.2 secs

     End of self-consistent calculation

 ------ SPIN UP ------------


          k = 0.0000 0.0000 0.0000 ( 63077 PWs)   bands (ev):

   -26.5652 -26.5652 -26.5557 -26.5557 -26.5557 -14.8809  -5.0962  -5.0962
    -5.0962  -0.9615  -0.2996  -0.0799

 ------ SPIN DOWN ----------


          k = 0.0000 0.0000 0.0000 ( 63077 PWs)   bands (ev):

   -26.2526 -26.2526 -26.2480 -26.2480 -26.2480 -13.3506  -3.3343  -3.3343
    -3.3343  -0.7244  -0.0578  -0.0269

     the Fermi energy is    -4.1525 ev

!    total energy              =    -905.70036431 Ry
     total all-electron energy =    -43061.158361 Ry
     estimated scf accuracy    <       0.00000006 Ry
     smearing contrib. (-TS)   =       0.00000000 Ry
     internal energy E=F+TS    =    -905.70036431 Ry

     The total energy is F=E-TS. E is the sum of the following terms:
     one-electron contribution =    -195.73408036 Ry
     hartree contribution      =     101.22214383 Ry
     xc contribution           =     -32.33392430 Ry
     ewald contribution        =     -22.52149756 Ry
     one-center paw contrib.   =    -756.33300592 Ry

     total magnetization       =     3.00 Bohr mag/cell
     absolute magnetization    =     3.00 Bohr mag/cell

     convergence has been achieved in   8 iterations

     negative rho (up, down):  3.744E-02 4.941E-02

     Forces acting on atoms (cartesian axes, Ry/au):

     atom    1 type  1   force =     0.00000000    0.00000000    0.00000000

     Total force =     0.000000     Total SCF correction =     0.000000


     Computing stress (Cartesian axis) and pressure


     negative rho (up, down):  3.744E-02 4.941E-02
          total   stress  (Ry/bohr**3)                   (kbar)     P=      -19.29
  -0.00013115   0.00000000   0.00000000          -19.29        0.00        0.00
   0.00000000  -0.00013115   0.00000000            0.00      -19.29        0.00
   0.00000000   0.00000000  -0.00013115            0.00        0.00      -19.29


     Writing all to output data dir /root/qe_scratch/atom_Bi.save/ :
     XML data file, charge density, pseudopotentials, collected wavefunctions
 
     init_run     :      8.72s CPU     11.83s WALL (       1 calls)
     electrons    :     19.07s CPU     21.06s WALL (       1 calls)
     forces       :      0.18s CPU      0.22s WALL (       1 calls)
     stress       :      0.39s CPU      0.41s WALL (       1 calls)

     Called by init_run:
     wfcinit      :      0.13s CPU      0.33s WALL (       1 calls)
     potinit      :      7.56s CPU     10.16s WALL (       1 calls)
     hinit0       :      0.31s CPU      0.43s WALL (       1 calls)

     Called by electrons:
     c_bands      :      5.45s CPU      5.46s WALL (       8 calls)
     sum_band     :      1.44s CPU      1.46s WALL (       8 calls)
     v_of_rho     :      0.98s CPU      1.29s WALL (       9 calls)
     newd         :      0.29s CPU      0.37s WALL (       9 calls)
                                        0.37s GPU  (       9 calls)
     PAW_pot      :      8.40s CPU      9.63s WALL (       9 calls)
     mix_rho      :      0.85s CPU      0.99s WALL (       8 calls)

     Called by c_bands:
     init_us_2    :      0.01s CPU      0.01s WALL (      38 calls)
     cegterg      :      5.31s CPU      5.31s WALL (      16 calls)

     Called by *egterg:
     cdiaghg      :      0.11s CPU      0.13s WALL (     126 calls)
                                        0.13s GPU  (     126 calls)
     h_psi        :      0.36s CPU      0.53s WALL (     128 calls)
                                        0.53s GPU  (     128 calls)
     s_psi        :      0.01s CPU      0.01s WALL (     128 calls)
     g_psi        :      0.00s CPU      0.00s WALL (     110 calls)
                                        0.00s GPU  (     110 calls)

     Called by h_psi:
     h_psi:calbec :      0.09s CPU      0.29s WALL (     128 calls)
                                        0.29s GPU  (     128 calls)
     vloc_psi     :      0.20s CPU      0.20s WALL (     128 calls)
                                        0.20s GPU  (     128 calls)
     add_vuspsi   :      0.01s CPU      0.02s WALL (     128 calls)
                                        0.02s GPU  (     128 calls)

     General routines
     calbec       :      0.09s CPU      0.25s WALL (     154 calls)
     fft          :      5.80s CPU      7.89s WALL (     263 calls)
                                        0.07s GPU  (     245 calls)
     ffts         :      2.40s CPU      3.09s WALL (      34 calls)
                                        0.00s GPU  (      16 calls)
     fftw         :      0.01s CPU      0.18s WALL (     272 calls)
                                        0.18s GPU  (     272 calls)
     interpolate  :      8.43s CPU     11.19s WALL (      18 calls)
 
     Parallel routines
 
     PWSCF        :     28.96s CPU     34.33s WALL

 
   This run was terminated on:   7:52: 0   6May2026            

=------------------------------------------------------------------------------=
   JOB DONE.
=------------------------------------------------------------------------------=
Warning: ieee_invalid is signaling
Warning: ieee_divide_by_zero is signaling
Warning: ieee_inexact is signaling
FORTRAN STOP
