--------------------------------------------------------------------------
WARNING: Open MPI tried to bind a process but failed.  This is a
warning only; your job will continue, though performance may
be degraded.

  Local host:        3253031b5b37
  Application name:  /root/qe-7.3.1/bin/pw.x
  Error message:     failed to bind memory
  Location:          ../../../../../orte/mca/rtc/hwloc/rtc_hwloc.c:447

--------------------------------------------------------------------------

     Program PWSCF v.7.3.1 starts on  6May2026 at  7:53:32 

     This program is part of the open-source Quantum ESPRESSO suite
     for quantum simulation of materials; please cite
         "P. Giannozzi et al., J. Phys.:Condens. Matter 21 395502 (2009);
         "P. Giannozzi et al., J. Phys.:Condens. Matter 29 465901 (2017);
         "P. Giannozzi et al., J. Chem. Phys. 152 154105 (2020);
          URL http://www.quantum-espresso.org", 
     in publications or presentations arising from this work. More details at
     http://www.quantum-espresso.org/quote

     Parallel version (MPI & OpenMP), running on       8 processor cores
     Number of MPI processes:                 1
     Threads/MPI process:                     8

     MPI processes distributed on     1 nodes
     90734 MiB available memory on the printing compute node when the environment starts
 
     Reading input from atom_Cu.in

     Current dimensions of program PWSCF are:
     Max number of different atomic species (ntypx) = 10
     Max number of k-points (npk) =  40000
     Max angular momentum in pseudopotentials (lmaxx) =  4
     Message from routine setup:
     using ibrav=0 with symmetry is DISCOURAGED, use correct ibrav instead
 
     Subspace diagonalization in iterative solution of the eigenvalue problem:
     a serial algorithm will be used

 
     G-vector sticks info
     --------------------
     sticks:   dense  smooth     PW     G-vecs:    dense   smooth      PW
     Sum       11513    7685   1917               929121   505887   63077
 
     Using Slab Decomposition
 


     bravais-lattice index     =            0
     lattice parameter (alat)  =      28.3459  a.u.
     unit-cell volume          =   22775.6289 (a.u.)^3
     number of atoms/cell      =            1
     number of atomic types    =            1
     number of electrons       =        11.00
     number of Kohn-Sham states=           10
     kinetic-energy cutoff     =      30.0000  Ry
     charge density cutoff     =     180.0000  Ry
     scf convergence threshold =      1.0E-07
     mixing beta               =       0.4000
     number of iterations used =            8  plain     mixing
     Exchange-correlation= SLA  PW   PBX  PBC
                           (   1   4   3   4   0   0   0)

     GPU acceleration is ACTIVE.  1 visible GPUs per MPI rank


     celldm(1)=  28.345892  celldm(2)=   0.000000  celldm(3)=   0.000000
     celldm(4)=   0.000000  celldm(5)=   0.000000  celldm(6)=   0.000000

     crystal axes: (cart. coord. in units of alat)
               a(1) = (   1.000000   0.000000   0.000000 )  
               a(2) = (   0.000000   1.000000   0.000000 )  
               a(3) = (   0.000000   0.000000   1.000000 )  

     reciprocal axes: (cart. coord. in units 2 pi/alat)
               b(1) = (  1.000000  0.000000  0.000000 )  
               b(2) = (  0.000000  1.000000  0.000000 )  
               b(3) = (  0.000000  0.000000  1.000000 )  


     PseudoPot. # 1 for Cu read from file:
     /root/qe_pseudos/Cu.UPF
     MD5 check sum: fe769b0ab65dca5f3352e2411ad4c6f8
     Pseudo is Projector augmented-wave + core cor, Zval = 11.0
     Generated using "atomic" code by A. Dal Corso (espresso distribution)
     Shape of augmentation charge: BESSEL
     Using radial grid of 1199 points,  6 beta functions with: 
                l(1) =   2
                l(2) =   2
                l(3) =   0
                l(4) =   0
                l(5) =   1
                l(6) =   1
     Q(r) pseudized with 0 coefficients 


     atomic species   valence    mass     pseudopotential
     Cu               11.00    63.54600     Cu( 1.00)

     Starting magnetic structure 
     atomic species   magnetization
     Cu              0.500

     48 Sym. Ops., with inversion, found



   Cartesian axes

     site n.     atom                  positions (alat units)
         1        Cu     tau(   1) = (   0.5000000   0.5000000   0.5000000  )

     number of k points=     1  Methfessel-Paxton smearing, width (Ry)=  0.0100
                       cart. coord. in units 2pi/alat
        k(    1) = (   0.0000000   0.0000000   0.0000000), wk =   1.0000000

     Dense  grid:   929121 G-vectors     FFT dimensions: ( 125, 125, 125)

     Smooth grid:   505887 G-vectors     FFT dimensions: ( 100, 100, 100)

     Estimated max dynamical RAM per process >       3.70 GB
     Generating pointlists ...
     new r_m :   0.4125 (alat units) 11.6927 (a.u.) for type    1

     Initial potential from superposition of free atoms

     starting charge      10.9997, renormalised to      11.0000

     negative rho (up, down):  3.122E-03 1.041E-03
     Starting wfcs are    9 randomized atomic wfcs +    1 random wfcs
     Checking if some PAW data can be deallocated... 

     total cpu time spent up to now is       12.0 secs

     Self-consistent Calculation

     iteration #  1     ecut=    30.00 Ry     beta= 0.40
     Davidson diagonalization with overlap
     ethr =  1.00E-02,  avg # of iterations =  6.5

     negative rho (up, down):  2.675E-03 1.078E-03

     total cpu time spent up to now is       14.8 secs

     total energy              =    -212.59595444 Ry
     estimated scf accuracy    <       0.47030034 Ry

     total magnetization       =     1.00 Bohr mag/cell
     absolute magnetization    =     1.20 Bohr mag/cell

     iteration #  2     ecut=    30.00 Ry     beta= 0.40
     Davidson diagonalization with overlap
     ethr =  4.28E-03,  avg # of iterations =  2.0

     negative rho (up, down):  2.757E-03 2.138E-03

     total cpu time spent up to now is       17.1 secs

     total energy              =    -212.89479836 Ry
     estimated scf accuracy    <       0.36487508 Ry

     total magnetization       =     1.00 Bohr mag/cell
     absolute magnetization    =     1.00 Bohr mag/cell

     iteration #  3     ecut=    30.00 Ry     beta= 0.40
     Davidson diagonalization with overlap
     ethr =  3.32E-03,  avg # of iterations =  1.0

     negative rho (up, down):  3.845E-03 5.803E-03

     total cpu time spent up to now is       19.2 secs

     total energy              =    -212.82208153 Ry
     estimated scf accuracy    <       0.19495336 Ry

     total magnetization       =     1.00 Bohr mag/cell
     absolute magnetization    =     1.00 Bohr mag/cell

     iteration #  4     ecut=    30.00 Ry     beta= 0.40
     Davidson diagonalization with overlap
     ethr =  1.77E-03,  avg # of iterations =  4.0

     negative rho (up, down):  1.096E-02 2.488E-02

     total cpu time spent up to now is       21.2 secs

     total energy              =    -214.97354018 Ry
     estimated scf accuracy    <      41.16331098 Ry

     total magnetization       =     1.00 Bohr mag/cell
     absolute magnetization    =     1.64 Bohr mag/cell

     iteration #  5     ecut=    30.00 Ry     beta= 0.40
     Davidson diagonalization with overlap
     ethr =  1.77E-03,  avg # of iterations =  9.0

     negative rho (up, down):  1.743E-02 4.678E-02

     total cpu time spent up to now is       23.3 secs

     total energy              =    -215.91868320 Ry
     estimated scf accuracy    <      52.49801821 Ry

     total magnetization       =     0.85 Bohr mag/cell
     absolute magnetization    =     2.71 Bohr mag/cell

     iteration #  6     ecut=    30.00 Ry     beta= 0.40
     Davidson diagonalization with overlap
     ethr =  1.77E-03,  avg # of iterations =  4.5

     negative rho (up, down):  2.174E-02 5.084E-02

     total cpu time spent up to now is       25.5 secs

     total energy              =    -215.85924274 Ry
     estimated scf accuracy    <      54.18019670 Ry

     total magnetization       =     0.85 Bohr mag/cell
     absolute magnetization    =     3.19 Bohr mag/cell

     iteration #  7     ecut=    30.00 Ry     beta= 0.40
     Davidson diagonalization with overlap
     ethr =  1.77E-03,  avg # of iterations =  1.5

     negative rho (up, down):  1.277E-02 8.787E-02

     total cpu time spent up to now is       27.6 secs

     total energy              =    -216.07885005 Ry
     estimated scf accuracy    <      54.24730097 Ry

     total magnetization       =     1.32 Bohr mag/cell
     absolute magnetization    =     2.87 Bohr mag/cell

     iteration #  8     ecut=    30.00 Ry     beta= 0.40
     Davidson diagonalization with overlap
     ethr =  1.77E-03,  avg # of iterations =  1.0

     negative rho (up, down):  1.891E-02 9.923E-02

     total cpu time spent up to now is       29.6 secs

     total energy              =    -216.85215102 Ry
     estimated scf accuracy    <      55.29556396 Ry

     total magnetization       =     3.14 Bohr mag/cell
     absolute magnetization    =     3.61 Bohr mag/cell

     iteration #  9     ecut=    30.00 Ry     beta= 0.40
     Davidson diagonalization with overlap
     ethr =  1.77E-03,  avg # of iterations =  1.0

     negative rho (up, down):  1.044E-01 9.376E-02

     total cpu time spent up to now is       31.5 secs

     total energy              =    -211.98532236 Ry
     estimated scf accuracy    <      56.00422998 Ry

     total magnetization       =     2.03 Bohr mag/cell
     absolute magnetization    =     3.06 Bohr mag/cell

     iteration # 10     ecut=    30.00 Ry     beta= 0.40
     Davidson diagonalization with overlap
     ethr =  1.77E-03,  avg # of iterations =  4.0

     negative rho (up, down):  1.088E-01 1.075E-01

     total cpu time spent up to now is       33.7 secs

     total energy              =    -211.30232235 Ry
     estimated scf accuracy    <      24.74771495 Ry

     total magnetization       =     4.96 Bohr mag/cell
     absolute magnetization    =     5.33 Bohr mag/cell

     iteration # 11     ecut=    30.00 Ry     beta= 0.40
     Davidson diagonalization with overlap
     ethr =  1.77E-03,  avg # of iterations =  4.0

     negative rho (up, down):  3.338E-02 1.731E-01

     total cpu time spent up to now is       35.8 secs

     total energy              =    -210.38980731 Ry
     estimated scf accuracy    <      11.01361249 Ry

     total magnetization       =     7.14 Bohr mag/cell
     absolute magnetization    =     8.35 Bohr mag/cell

     iteration # 12     ecut=    30.00 Ry     beta= 0.40
     Davidson diagonalization with overlap
     ethr =  1.77E-03,  avg # of iterations =  5.0

     negative rho (up, down):  2.790E-05 7.995E-01

     total cpu time spent up to now is       37.8 secs

     total energy              =    -211.98017134 Ry
     estimated scf accuracy    <       1.86440370 Ry

     total magnetization       =     5.00 Bohr mag/cell
     absolute magnetization    =     5.00 Bohr mag/cell

     iteration # 13     ecut=    30.00 Ry     beta= 0.40
     Davidson diagonalization with overlap
     ethr =  1.77E-03,  avg # of iterations =  1.5

     negative rho (up, down):  2.135E-06 1.898E+00

     total cpu time spent up to now is       39.9 secs

     total energy              =    -211.97230353 Ry
     estimated scf accuracy    <       2.09027318 Ry

     total magnetization       =     5.00 Bohr mag/cell
     absolute magnetization    =     5.00 Bohr mag/cell

     iteration # 14     ecut=    30.00 Ry     beta= 0.40
     Davidson diagonalization with overlap
     ethr =  1.77E-03,  avg # of iterations =  3.5

     negative rho (up, down):  1.410E-03 1.376E+00

     total cpu time spent up to now is       42.1 secs

     total energy              =    -212.37360419 Ry
     estimated scf accuracy    <       0.74134055 Ry

     total magnetization       =     3.00 Bohr mag/cell
     absolute magnetization    =     3.00 Bohr mag/cell

     iteration # 15     ecut=    30.00 Ry     beta= 0.40
     Davidson diagonalization with overlap
     ethr =  1.77E-03,  avg # of iterations =  1.0

     negative rho (up, down):  3.313E-03 1.445E+00

     total cpu time spent up to now is       44.1 secs

     total energy              =    -212.47521036 Ry
     estimated scf accuracy    <       0.75655023 Ry

     total magnetization       =     3.03 Bohr mag/cell
     absolute magnetization    =     3.03 Bohr mag/cell

     iteration # 16     ecut=    30.00 Ry     beta= 0.40
     Davidson diagonalization with overlap
     ethr =  1.77E-03,  avg # of iterations =  1.0

     negative rho (up, down):  0.000E+00 1.102E+00

     total cpu time spent up to now is       46.2 secs

     total energy              =    -211.63797084 Ry
     estimated scf accuracy    <       1.16243836 Ry

     total magnetization       =     2.91 Bohr mag/cell
     absolute magnetization    =     2.93 Bohr mag/cell

     iteration # 17     ecut=    30.00 Ry     beta= 0.40
     Davidson diagonalization with overlap
     ethr =  1.77E-03,  avg # of iterations =  5.0

     negative rho (up, down):  0.000E+00 9.136E-01

     total cpu time spent up to now is       48.4 secs

     total energy              =    -212.67720639 Ry
     estimated scf accuracy    <       0.27124055 Ry

     total magnetization       =     1.00 Bohr mag/cell
     absolute magnetization    =     1.06 Bohr mag/cell

     iteration # 18     ecut=    30.00 Ry     beta= 0.40
     Davidson diagonalization with overlap
     ethr =  1.77E-03,  avg # of iterations =  1.5

     negative rho (up, down):  9.119E-02 1.327E-01

     total cpu time spent up to now is       50.5 secs

     total energy              =    -212.68530881 Ry
     estimated scf accuracy    <       0.36970191 Ry

     total magnetization       =     1.00 Bohr mag/cell
     absolute magnetization    =     1.09 Bohr mag/cell

     iteration # 19     ecut=    30.00 Ry     beta= 0.40
     Davidson diagonalization with overlap
     ethr =  1.77E-03,  avg # of iterations =  4.5

     negative rho (up, down):  6.945E-01 8.225E-03

     total cpu time spent up to now is       52.5 secs

     total energy              =    -212.93716419 Ry
     estimated scf accuracy    <       0.35800313 Ry

     total magnetization       =     1.00 Bohr mag/cell
     absolute magnetization    =     1.00 Bohr mag/cell

     iteration # 20     ecut=    30.00 Ry     beta= 0.40
     Davidson diagonalization with overlap
     ethr =  1.77E-03,  avg # of iterations =  1.5

     negative rho (up, down):  6.555E-02 7.181E-02

     total cpu time spent up to now is       54.5 secs

     total energy              =    -213.09209234 Ry
     estimated scf accuracy    <       0.18885064 Ry

     total magnetization       =     1.07 Bohr mag/cell
     absolute magnetization    =     1.07 Bohr mag/cell

     iteration # 21     ecut=    30.00 Ry     beta= 0.40
     Davidson diagonalization with overlap
     ethr =  1.72E-03,  avg # of iterations =  1.5

     negative rho (up, down):  9.317E-02 4.296E-02

     total cpu time spent up to now is       56.5 secs

     total energy              =    -212.99904384 Ry
     estimated scf accuracy    <       0.30501674 Ry

     total magnetization       =     1.00 Bohr mag/cell
     absolute magnetization    =     1.00 Bohr mag/cell

     iteration # 22     ecut=    30.00 Ry     beta= 0.40
     Davidson diagonalization with overlap
     ethr =  1.72E-03,  avg # of iterations =  1.0

     negative rho (up, down):  1.141E-01 4.054E-02

     total cpu time spent up to now is       58.6 secs

     total energy              =    -212.95470574 Ry
     estimated scf accuracy    <       0.16512841 Ry

     total magnetization       =     1.00 Bohr mag/cell
     absolute magnetization    =     1.00 Bohr mag/cell

     iteration # 23     ecut=    30.00 Ry     beta= 0.40
     Davidson diagonalization with overlap
     ethr =  1.50E-03,  avg # of iterations =  1.5

     negative rho (up, down):  8.809E-02 1.120E-01

     total cpu time spent up to now is       60.6 secs

     total energy              =    -212.95348158 Ry
     estimated scf accuracy    <       0.06989848 Ry

     total magnetization       =     1.00 Bohr mag/cell
     absolute magnetization    =     1.00 Bohr mag/cell

     iteration # 24     ecut=    30.00 Ry     beta= 0.40
     Davidson diagonalization with overlap
     ethr =  6.35E-04,  avg # of iterations =  1.5

     negative rho (up, down):  4.528E-02 1.191E-01

     total cpu time spent up to now is       62.6 secs

     total energy              =    -212.98158906 Ry
     estimated scf accuracy    <       0.03667330 Ry

     total magnetization       =     1.00 Bohr mag/cell
     absolute magnetization    =     1.02 Bohr mag/cell

     iteration # 25     ecut=    30.00 Ry     beta= 0.40
     Davidson diagonalization with overlap
     ethr =  3.33E-04,  avg # of iterations =  1.5

     negative rho (up, down):  5.450E-03 2.342E-02

     total cpu time spent up to now is       64.8 secs

     total energy              =    -212.94420176 Ry
     estimated scf accuracy    <       0.05902387 Ry

     total magnetization       =     1.00 Bohr mag/cell
     absolute magnetization    =     1.01 Bohr mag/cell

     iteration # 26     ecut=    30.00 Ry     beta= 0.40
     Davidson diagonalization with overlap
     ethr =  3.33E-04,  avg # of iterations =  2.0

     negative rho (up, down):  1.128E-02 3.935E-03

     total cpu time spent up to now is       66.9 secs

     total energy              =    -212.95554682 Ry
     estimated scf accuracy    <       0.00224035 Ry

     total magnetization       =     1.00 Bohr mag/cell
     absolute magnetization    =     1.02 Bohr mag/cell

     iteration # 27     ecut=    30.00 Ry     beta= 0.40
     Davidson diagonalization with overlap
     ethr =  2.04E-05,  avg # of iterations =  6.0

     negative rho (up, down):  8.774E-03 2.083E-03

     total cpu time spent up to now is       69.0 secs

     total energy              =    -212.95835738 Ry
     estimated scf accuracy    <       0.00016693 Ry

     total magnetization       =     1.00 Bohr mag/cell
     absolute magnetization    =     1.05 Bohr mag/cell

     iteration # 28     ecut=    30.00 Ry     beta= 0.40
     Davidson diagonalization with overlap
     ethr =  1.52E-06,  avg # of iterations =  6.0

     negative rho (up, down):  8.987E-03 2.073E-03

     total cpu time spent up to now is       71.3 secs

     total energy              =    -212.95845804 Ry
     estimated scf accuracy    <       0.00003062 Ry

     total magnetization       =     1.00 Bohr mag/cell
     absolute magnetization    =     1.05 Bohr mag/cell

     iteration # 29     ecut=    30.00 Ry     beta= 0.40
     Davidson diagonalization with overlap
     ethr =  2.78E-07,  avg # of iterations =  2.5

     negative rho (up, down):  2.998E-03 2.619E-03

     total cpu time spent up to now is       73.3 secs

     total energy              =    -212.95855965 Ry
     estimated scf accuracy    <       0.00003191 Ry

     total magnetization       =     1.00 Bohr mag/cell
     absolute magnetization    =     1.04 Bohr mag/cell

     iteration # 30     ecut=    30.00 Ry     beta= 0.40
     Davidson diagonalization with overlap
     ethr =  2.78E-07,  avg # of iterations =  3.0

     negative rho (up, down):  2.956E-03 2.489E-03

     total cpu time spent up to now is       75.3 secs

     total energy              =    -212.95856276 Ry
     estimated scf accuracy    <       0.00004374 Ry

     total magnetization       =     1.00 Bohr mag/cell
     absolute magnetization    =     1.05 Bohr mag/cell

     iteration # 31     ecut=    30.00 Ry     beta= 0.40
     Davidson diagonalization with overlap
     ethr =  2.78E-07,  avg # of iterations =  1.0

     negative rho (up, down):  2.028E-03 2.539E-03

     total cpu time spent up to now is       77.3 secs

     total energy              =    -212.95851726 Ry
     estimated scf accuracy    <       0.00003032 Ry

     total magnetization       =     1.00 Bohr mag/cell
     absolute magnetization    =     1.04 Bohr mag/cell

     iteration # 32     ecut=    30.00 Ry     beta= 0.40
     Davidson diagonalization with overlap
     ethr =  2.76E-07,  avg # of iterations =  4.0

     negative rho (up, down):  1.743E-03 2.802E-03

     total cpu time spent up to now is       79.3 secs

     total energy              =    -212.95854138 Ry
     estimated scf accuracy    <       0.00000039 Ry

     total magnetization       =     1.00 Bohr mag/cell
     absolute magnetization    =     1.04 Bohr mag/cell

     iteration # 33     ecut=    30.00 Ry     beta= 0.40
     Davidson diagonalization with overlap
     ethr =  3.58E-09,  avg # of iterations =  5.0

     negative rho (up, down):  1.858E-03 2.713E-03

     total cpu time spent up to now is       81.3 secs

     total energy              =    -212.95854198 Ry
     estimated scf accuracy    <       0.00000011 Ry

     total magnetization       =     1.00 Bohr mag/cell
     absolute magnetization    =     1.04 Bohr mag/cell

     iteration # 34     ecut=    30.00 Ry     beta= 0.40
     Davidson diagonalization with overlap
     ethr =  1.03E-09,  avg # of iterations =  4.5

     negative rho (up, down):  2.002E-03 2.625E-03

     total cpu time spent up to now is       83.4 secs

     total energy              =    -212.95854225 Ry
     estimated scf accuracy    <       0.00000133 Ry

     total magnetization       =     1.00 Bohr mag/cell
     absolute magnetization    =     1.04 Bohr mag/cell

     iteration # 35     ecut=    30.00 Ry     beta= 0.40
     Davidson diagonalization with overlap
     ethr =  1.03E-09,  avg # of iterations =  4.5

     negative rho (up, down):  1.906E-03 2.717E-03

     total cpu time spent up to now is       85.4 secs

     total energy              =    -212.95854275 Ry
     estimated scf accuracy    <       0.00000023 Ry

     total magnetization       =     1.00 Bohr mag/cell
     absolute magnetization    =     1.04 Bohr mag/cell

     iteration # 36     ecut=    30.00 Ry     beta= 0.40
     Davidson diagonalization with overlap
     ethr =  1.03E-09,  avg # of iterations =  4.5

     negative rho (up, down):  1.875E-03 2.736E-03
 
     Magnetic moment per site  (integrated on atomic sphere of radius R)
     atom   1 (R=0.413)  charge= 11.0000  magn=  1.0000

     total cpu time spent up to now is       87.1 secs

     End of self-consistent calculation

 ------ SPIN UP ------------


          k = 0.0000 0.0000 0.0000 ( 63077 PWs)   bands (ev):

    -4.9333  -4.8959  -4.8959  -4.8958  -4.8958  -4.8958  -0.8991  -0.8991
    -0.8991  -0.3272

 ------ SPIN DOWN ----------


          k = 0.0000 0.0000 0.0000 ( 63077 PWs)   bands (ev):

    -4.7286  -4.7286  -4.7286  -4.7284  -4.7284  -3.9886  -0.2683  -0.1782
    -0.1782  -0.1781

     the Fermi energy is    -4.3365 ev

!    total energy              =    -212.95854295 Ry
     total all-electron energy =     -3309.715561 Ry
     estimated scf accuracy    <       0.00000002 Ry
     smearing contrib. (-TS)   =       0.00005200 Ry
     internal energy E=F+TS    =    -212.95859495 Ry

     The total energy is F=E-TS. E is the sum of the following terms:
     one-electron contribution =    -154.27988667 Ry
     hartree contribution      =      68.93989405 Ry
     xc contribution           =     -19.42211679 Ry
     ewald contribution        =     -12.11156096 Ry
     one-center paw contrib.   =     -96.08492459 Ry

     total magnetization       =     1.00 Bohr mag/cell
     absolute magnetization    =     1.04 Bohr mag/cell

     convergence has been achieved in  36 iterations

     negative rho (up, down):  1.875E-03 2.736E-03

     Forces acting on atoms (cartesian axes, Ry/au):

     atom    1 type  1   force =     0.00000000    0.00000000    0.00000000

     Total force =     0.000000     Total SCF correction =     0.000000


     Computing stress (Cartesian axis) and pressure


     negative rho (up, down):  1.875E-03 2.736E-03
          total   stress  (Ry/bohr**3)                   (kbar)     P=       -0.02
  -0.00000017   0.00000000   0.00000000           -0.02        0.00        0.00
   0.00000000  -0.00000017   0.00000000            0.00       -0.02        0.00
   0.00000000   0.00000000  -0.00000017            0.00        0.00       -0.02


     Writing all to output data dir /root/qe_scratch/atom_Cu.save/ :
     XML data file, charge density, pseudopotentials, collected wavefunctions
 
     init_run     :      8.46s CPU     11.69s WALL (       1 calls)
     electrons    :     66.15s CPU     75.16s WALL (       1 calls)
     forces       :      0.17s CPU      0.22s WALL (       1 calls)
     stress       :      0.37s CPU      0.41s WALL (       1 calls)

     Called by init_run:
     wfcinit      :      0.11s CPU      0.33s WALL (       1 calls)
     potinit      :      7.36s CPU     10.04s WALL (       1 calls)
     hinit0       :      0.29s CPU      0.42s WALL (       1 calls)

     Called by electrons:
     c_bands      :      4.97s CPU      5.01s WALL (      36 calls)
     sum_band     :      6.47s CPU      6.50s WALL (      36 calls)
     v_of_rho     :      4.06s CPU      5.03s WALL (      37 calls)
     newd         :      1.04s CPU      1.15s WALL (      37 calls)
                                        1.15s GPU  (      37 calls)
     PAW_pot      :     31.53s CPU     37.10s WALL (      37 calls)
     mix_rho      :      6.52s CPU      7.01s WALL (      36 calls)

     Called by c_bands:
     init_us_2    :      0.04s CPU      0.04s WALL (     150 calls)
     cegterg      :      4.44s CPU      4.47s WALL (      72 calls)

     Called by *egterg:
     cdiaghg      :      0.21s CPU      0.24s WALL (     298 calls)
                                        0.24s GPU  (     298 calls)
     h_psi        :      0.92s CPU      1.12s WALL (     300 calls)
                                        1.12s GPU  (     300 calls)
     s_psi        :      0.02s CPU      0.02s WALL (     300 calls)
     g_psi        :      0.00s CPU      0.01s WALL (     226 calls)
                                        0.01s GPU  (     226 calls)

     Called by h_psi:
     h_psi:calbec :      0.07s CPU      0.39s WALL (     300 calls)
                                        0.39s GPU  (     300 calls)
     vloc_psi     :      0.62s CPU      0.63s WALL (     300 calls)
                                        0.63s GPU  (     300 calls)
     add_vuspsi   :      0.02s CPU      0.07s WALL (     300 calls)
                                        0.07s GPU  (     300 calls)

     General routines
     calbec       :      0.07s CPU      0.26s WALL (     382 calls)
     fft          :      9.76s CPU     12.91s WALL (     963 calls)
                                        0.25s GPU  (     889 calls)
     ffts         :      4.60s CPU      6.03s WALL (     146 calls)
                                        0.01s GPU  (      72 calls)
     fftw         :      0.02s CPU      0.57s WALL (     672 calls)
                                        0.57s GPU  (     672 calls)
     interpolate  :     15.38s CPU     19.81s WALL (      74 calls)
 
     Parallel routines
 
     PWSCF        :   1m15.63s CPU   1m28.17s WALL

 
   This run was terminated on:   7:55: 0   6May2026            

=------------------------------------------------------------------------------=
   JOB DONE.
=------------------------------------------------------------------------------=
Warning: ieee_invalid is signaling
Warning: ieee_divide_by_zero is signaling
Warning: ieee_inexact is signaling
FORTRAN STOP
