--------------------------------------------------------------------------
WARNING: Open MPI tried to bind a process but failed.  This is a
warning only; your job will continue, though performance may
be degraded.

  Local host:        3253031b5b37
  Application name:  /root/qe-7.3.1/bin/pw.x
  Error message:     failed to bind memory
  Location:          ../../../../../orte/mca/rtc/hwloc/rtc_hwloc.c:447

--------------------------------------------------------------------------

     Program PWSCF v.7.3.1 starts on  6May2026 at  8:12:13 

     This program is part of the open-source Quantum ESPRESSO suite
     for quantum simulation of materials; please cite
         "P. Giannozzi et al., J. Phys.:Condens. Matter 21 395502 (2009);
         "P. Giannozzi et al., J. Phys.:Condens. Matter 29 465901 (2017);
         "P. Giannozzi et al., J. Chem. Phys. 152 154105 (2020);
          URL http://www.quantum-espresso.org", 
     in publications or presentations arising from this work. More details at
     http://www.quantum-espresso.org/quote

     Parallel version (MPI & OpenMP), running on       8 processor cores
     Number of MPI processes:                 1
     Threads/MPI process:                     8

     MPI processes distributed on     1 nodes
     89241 MiB available memory on the printing compute node when the environment starts
 
     Reading input from atom_Tl.in

     Current dimensions of program PWSCF are:
     Max number of different atomic species (ntypx) = 10
     Max number of k-points (npk) =  40000
     Max angular momentum in pseudopotentials (lmaxx) =  4
     file Tl.UPF: wavefunction(s)  6S 5D renormalized
     Message from routine setup:
     using ibrav=0 with symmetry is DISCOURAGED, use correct ibrav instead
 
     Subspace diagonalization in iterative solution of the eigenvalue problem:
     a serial algorithm will be used

 
     G-vector sticks info
     --------------------
     sticks:   dense  smooth     PW     G-vecs:    dense   smooth      PW
     Sum       11513    7685   1917               929121   505887   63077
 
     Using Slab Decomposition
 


     bravais-lattice index     =            0
     lattice parameter (alat)  =      28.3459  a.u.
     unit-cell volume          =   22775.6289 (a.u.)^3
     number of atoms/cell      =            1
     number of atomic types    =            1
     number of electrons       =        13.00
     number of Kohn-Sham states=           11
     kinetic-energy cutoff     =      30.0000  Ry
     charge density cutoff     =     180.0000  Ry
     scf convergence threshold =      1.0E-07
     mixing beta               =       0.4000
     number of iterations used =            8  plain     mixing
     Exchange-correlation= PBE
                           (   1   4   3   4   0   0   0)

     GPU acceleration is ACTIVE.  1 visible GPUs per MPI rank


     celldm(1)=  28.345892  celldm(2)=   0.000000  celldm(3)=   0.000000
     celldm(4)=   0.000000  celldm(5)=   0.000000  celldm(6)=   0.000000

     crystal axes: (cart. coord. in units of alat)
               a(1) = (   1.000000   0.000000   0.000000 )  
               a(2) = (   0.000000   1.000000   0.000000 )  
               a(3) = (   0.000000   0.000000   1.000000 )  

     reciprocal axes: (cart. coord. in units 2 pi/alat)
               b(1) = (  1.000000  0.000000  0.000000 )  
               b(2) = (  0.000000  1.000000  0.000000 )  
               b(3) = (  0.000000  0.000000  1.000000 )  


     PseudoPot. # 1 for Tl read from file:
     /root/qe_pseudos/Tl.UPF
     MD5 check sum: 2f569f9d4f3250f3c1b402bd3424fb74
     Pseudo is Ultrasoft + core correction, Zval = 13.0
     Generated using &quot;atomic&quot; code by A. Dal Corso  v.6.2.2
     Using radial grid of 1281 points,  6 beta functions with: 
                l(1) =   0
                l(2) =   0
                l(3) =   1
                l(4) =   1
                l(5) =   2
                l(6) =   2
     Q(r) pseudized with 0 coefficients 


     atomic species   valence    mass     pseudopotential
     Tl               13.00   204.38000     Tl( 1.00)

     Starting magnetic structure 
     atomic species   magnetization
     Tl              0.500

     48 Sym. Ops., with inversion, found



   Cartesian axes

     site n.     atom                  positions (alat units)
         1        Tl     tau(   1) = (   0.5000000   0.5000000   0.5000000  )

     number of k points=     1  Methfessel-Paxton smearing, width (Ry)=  0.0100
                       cart. coord. in units 2pi/alat
        k(    1) = (   0.0000000   0.0000000   0.0000000), wk =   1.0000000

     Dense  grid:   929121 G-vectors     FFT dimensions: ( 125, 125, 125)

     Smooth grid:   505887 G-vectors     FFT dimensions: ( 100, 100, 100)

     Estimated max dynamical RAM per process >       3.71 GB
     Generating pointlists ...
     new r_m :   0.4125 (alat units) 11.6927 (a.u.) for type    1

     Initial potential from superposition of free atoms

     starting charge      12.9951, renormalised to      13.0000

     negative rho (up, down):  3.196E-03 1.065E-03
     Starting wfcs are    9 randomized atomic wfcs +    2 random wfcs

     total cpu time spent up to now is       10.8 secs

     Self-consistent Calculation

     iteration #  1     ecut=    30.00 Ry     beta= 0.40
     Davidson diagonalization with overlap
     ethr =  1.00E-02,  avg # of iterations =  6.0

     negative rho (up, down):  2.274E-03 1.161E-03

     total cpu time spent up to now is       11.9 secs

     total energy              =    -116.23713487 Ry
     estimated scf accuracy    <       0.30462424 Ry

     total magnetization       =     1.00 Bohr mag/cell
     absolute magnetization    =     1.00 Bohr mag/cell

     iteration #  2     ecut=    30.00 Ry     beta= 0.40
     Davidson diagonalization with overlap
     ethr =  2.34E-03,  avg # of iterations =  1.0

     negative rho (up, down):  1.985E-03 1.305E-03

     total cpu time spent up to now is       12.8 secs

     total energy              =    -116.36631184 Ry
     estimated scf accuracy    <       0.10954817 Ry

     total magnetization       =     1.00 Bohr mag/cell
     absolute magnetization    =     1.00 Bohr mag/cell

     iteration #  3     ecut=    30.00 Ry     beta= 0.40
     Davidson diagonalization with overlap
     ethr =  8.43E-04,  avg # of iterations =  1.0

     negative rho (up, down):  1.522E-03 1.457E-03

     total cpu time spent up to now is       13.8 secs

     total energy              =    -116.36936849 Ry
     estimated scf accuracy    <       0.00046508 Ry

     total magnetization       =     1.00 Bohr mag/cell
     absolute magnetization    =     1.01 Bohr mag/cell

     iteration #  4     ecut=    30.00 Ry     beta= 0.40
     Davidson diagonalization with overlap
     c_bands:  1 eigenvalues not converged
     c_bands:  1 eigenvalues not converged
     ethr =  3.58E-06,  avg # of iterations = 20.0

     negative rho (up, down):  1.196E-03 1.521E-03

     total cpu time spent up to now is       16.3 secs

     total energy              =    -116.36967518 Ry
     estimated scf accuracy    <       0.00007727 Ry

     total magnetization       =     1.00 Bohr mag/cell
     absolute magnetization    =     1.02 Bohr mag/cell

     iteration #  5     ecut=    30.00 Ry     beta= 0.40
     Davidson diagonalization with overlap
     ethr =  5.94E-07,  avg # of iterations = 18.0

     negative rho (up, down):  1.010E-03 1.577E-03

     total cpu time spent up to now is       20.6 secs

     total energy              =    -116.36970408 Ry
     estimated scf accuracy    <       0.00002262 Ry

     total magnetization       =     1.00 Bohr mag/cell
     absolute magnetization    =     1.02 Bohr mag/cell

     iteration #  6     ecut=    30.00 Ry     beta= 0.40
     Davidson diagonalization with overlap
     ethr =  1.74E-07,  avg # of iterations =  3.0

     negative rho (up, down):  9.765E-04 1.600E-03

     total cpu time spent up to now is       21.8 secs

     total energy              =    -116.36970337 Ry
     estimated scf accuracy    <       0.00000675 Ry

     total magnetization       =     1.00 Bohr mag/cell
     absolute magnetization    =     1.02 Bohr mag/cell

     iteration #  7     ecut=    30.00 Ry     beta= 0.40
     Davidson diagonalization with overlap
     ethr =  5.19E-08,  avg # of iterations =  2.0

     negative rho (up, down):  9.422E-04 1.616E-03

     total cpu time spent up to now is       22.8 secs

     total energy              =    -116.36970547 Ry
     estimated scf accuracy    <       0.00000014 Ry

     total magnetization       =     1.00 Bohr mag/cell
     absolute magnetization    =     1.02 Bohr mag/cell

     iteration #  8     ecut=    30.00 Ry     beta= 0.40
     Davidson diagonalization with overlap
     ethr =  1.09E-09,  avg # of iterations =  4.0

     negative rho (up, down):  9.250E-04 1.625E-03

     total cpu time spent up to now is       23.8 secs

     total energy              =    -116.36970512 Ry
     estimated scf accuracy    <       0.00000064 Ry

     total magnetization       =     1.00 Bohr mag/cell
     absolute magnetization    =     1.02 Bohr mag/cell

     iteration #  9     ecut=    30.00 Ry     beta= 0.40
     Davidson diagonalization with overlap
     ethr =  1.09E-09,  avg # of iterations =  2.0

     negative rho (up, down):  9.052E-04 1.638E-03
 
     Magnetic moment per site  (integrated on atomic sphere of radius R)
     atom   1 (R=0.413)  charge= 12.9990  magn=  0.9997

     total cpu time spent up to now is       24.6 secs

     End of self-consistent calculation

 ------ SPIN UP ------------


          k = 0.0000 0.0000 0.0000 ( 63077 PWs)   bands (ev):

   -15.1519 -15.1519 -15.1460 -15.1460 -15.1460  -9.6665  -2.5129  -2.5129
    -2.5129  -0.5689   0.2114

 ------ SPIN DOWN ----------


          k = 0.0000 0.0000 0.0000 ( 63077 PWs)   bands (ev):

   -15.0591 -15.0591 -15.0531 -15.0531 -15.0531  -9.1794  -1.8803  -1.8803
    -1.8803  -0.2386   0.4370

     the Fermi energy is    -2.5403 ev

!    total energy              =    -116.36970549 Ry
     estimated scf accuracy    <          3.0E-09 Ry
     smearing contrib. (-TS)   =      -0.00373359 Ry
     internal energy E=F+TS    =    -116.36597190 Ry

     The total energy is F=E-TS. E is the sum of the following terms:
     one-electron contribution =    -141.98848684 Ry
     hartree contribution      =      74.79625549 Ry
     xc contribution           =     -32.25759349 Ry
     ewald contribution        =     -16.91614706 Ry

     total magnetization       =     1.00 Bohr mag/cell
     absolute magnetization    =     1.02 Bohr mag/cell

     convergence has been achieved in   9 iterations

     negative rho (up, down):  9.052E-04 1.638E-03

     Forces acting on atoms (cartesian axes, Ry/au):

     atom    1 type  1   force =     0.00000000    0.00000000    0.00000000

     Total force =     0.000000     Total SCF correction =     0.000000


     Computing stress (Cartesian axis) and pressure


     negative rho (up, down):  9.052E-04 1.638E-03
          total   stress  (Ry/bohr**3)                   (kbar)     P=      -12.71
  -0.00008643   0.00000000   0.00000000          -12.71        0.00        0.00
   0.00000000  -0.00008643   0.00000000            0.00      -12.71        0.00
   0.00000000   0.00000000  -0.00008643            0.00        0.00      -12.71


     Writing all to output data dir /root/qe_scratch/atom_Tl.save/ :
     XML data file, charge density, pseudopotentials, collected wavefunctions
 
     init_run     :      7.55s CPU     10.46s WALL (       1 calls)
     electrons    :     12.83s CPU     13.89s WALL (       1 calls)
     forces       :      0.20s CPU      0.22s WALL (       1 calls)
     stress       :      0.37s CPU      0.41s WALL (       1 calls)

     Called by init_run:
     wfcinit      :      0.12s CPU      0.33s WALL (       1 calls)
     potinit      :      6.39s CPU      8.79s WALL (       1 calls)
     hinit0       :      0.32s CPU      0.43s WALL (       1 calls)

     Called by electrons:
     c_bands      :      5.77s CPU      5.78s WALL (       9 calls)
     sum_band     :      1.60s CPU      1.65s WALL (       9 calls)
     v_of_rho     :      1.10s CPU      1.41s WALL (      10 calls)
     newd         :      0.34s CPU      0.40s WALL (      10 calls)
                                        0.40s GPU  (      10 calls)
     mix_rho      :      1.03s CPU      1.20s WALL (       9 calls)

     Called by c_bands:
     init_us_2    :      0.01s CPU      0.01s WALL (      42 calls)
     cegterg      :      5.62s CPU      5.63s WALL (      18 calls)

     Called by *egterg:
     cdiaghg      :      0.12s CPU      0.13s WALL (     132 calls)
                                        0.13s GPU  (     132 calls)
     h_psi        :      0.35s CPU      0.54s WALL (     134 calls)
                                        0.54s GPU  (     134 calls)
     s_psi        :      0.01s CPU      0.01s WALL (     134 calls)
     g_psi        :      0.00s CPU      0.00s WALL (     114 calls)
                                        0.00s GPU  (     114 calls)

     Called by h_psi:
     h_psi:calbec :      0.07s CPU      0.29s WALL (     134 calls)
                                        0.29s GPU  (     134 calls)
     vloc_psi     :      0.21s CPU      0.21s WALL (     134 calls)
                                        0.21s GPU  (     134 calls)
     add_vuspsi   :      0.01s CPU      0.02s WALL (     134 calls)
                                        0.02s GPU  (     134 calls)

     General routines
     calbec       :      0.07s CPU      0.25s WALL (     162 calls)
     fft          :      5.70s CPU      7.79s WALL (     288 calls)
                                        0.08s GPU  (     268 calls)
     ffts         :      2.55s CPU      3.24s WALL (      38 calls)
                                        0.00s GPU  (      18 calls)
     fftw         :      0.01s CPU      0.18s WALL (     286 calls)
                                        0.18s GPU  (     286 calls)
     interpolate  :      8.51s CPU     11.30s WALL (      20 calls)
 
     Parallel routines
 
     PWSCF        :     21.51s CPU     25.71s WALL

 
   This run was terminated on:   8:12:38   6May2026            

=------------------------------------------------------------------------------=
   JOB DONE.
=------------------------------------------------------------------------------=
Warning: ieee_invalid is signaling
Warning: ieee_divide_by_zero is signaling
Warning: ieee_inexact is signaling
FORTRAN STOP
