--------------------------------------------------------------------------
WARNING: Open MPI tried to bind a process but failed.  This is a
warning only; your job will continue, though performance may
be degraded.

  Local host:        3253031b5b37
  Application name:  /root/qe-7.3.1/bin/pw.x
  Error message:     failed to bind memory
  Location:          ../../../../../orte/mca/rtc/hwloc/rtc_hwloc.c:447

--------------------------------------------------------------------------

     Program PWSCF v.7.3.1 starts on  6May2026 at  8:15: 1 

     This program is part of the open-source Quantum ESPRESSO suite
     for quantum simulation of materials; please cite
         "P. Giannozzi et al., J. Phys.:Condens. Matter 21 395502 (2009);
         "P. Giannozzi et al., J. Phys.:Condens. Matter 29 465901 (2017);
         "P. Giannozzi et al., J. Chem. Phys. 152 154105 (2020);
          URL http://www.quantum-espresso.org", 
     in publications or presentations arising from this work. More details at
     http://www.quantum-espresso.org/quote

     Parallel version (MPI & OpenMP), running on       8 processor cores
     Number of MPI processes:                 1
     Threads/MPI process:                     8

     MPI processes distributed on     1 nodes
     88967 MiB available memory on the printing compute node when the environment starts
 
     Reading input from atom_Zn.in

     Current dimensions of program PWSCF are:
     Max number of different atomic species (ntypx) = 10
     Max number of k-points (npk) =  40000
     Max angular momentum in pseudopotentials (lmaxx) =  4
     file Zn.UPF: wavefunction(s)  4S 3D renormalized
     Message from routine setup:
     using ibrav=0 with symmetry is DISCOURAGED, use correct ibrav instead
 
     Subspace diagonalization in iterative solution of the eigenvalue problem:
     a serial algorithm will be used

 
     G-vector sticks info
     --------------------
     sticks:   dense  smooth     PW     G-vecs:    dense   smooth      PW
     Sum       11513    7685   1917               929121   505887   63077
 
     Using Slab Decomposition
 


     bravais-lattice index     =            0
     lattice parameter (alat)  =      28.3459  a.u.
     unit-cell volume          =   22775.6289 (a.u.)^3
     number of atoms/cell      =            1
     number of atomic types    =            1
     number of electrons       =        12.00
     number of Kohn-Sham states=           10
     kinetic-energy cutoff     =      30.0000  Ry
     charge density cutoff     =     180.0000  Ry
     scf convergence threshold =      1.0E-07
     mixing beta               =       0.4000
     number of iterations used =            8  plain     mixing
     Exchange-correlation= SLA  PW   PBX  PBC
                           (   1   4   3   4   0   0   0)

     GPU acceleration is ACTIVE.  1 visible GPUs per MPI rank


     celldm(1)=  28.345892  celldm(2)=   0.000000  celldm(3)=   0.000000
     celldm(4)=   0.000000  celldm(5)=   0.000000  celldm(6)=   0.000000

     crystal axes: (cart. coord. in units of alat)
               a(1) = (   1.000000   0.000000   0.000000 )  
               a(2) = (   0.000000   1.000000   0.000000 )  
               a(3) = (   0.000000   0.000000   1.000000 )  

     reciprocal axes: (cart. coord. in units 2 pi/alat)
               b(1) = (  1.000000  0.000000  0.000000 )  
               b(2) = (  0.000000  1.000000  0.000000 )  
               b(3) = (  0.000000  0.000000  1.000000 )  


     PseudoPot. # 1 for Zn read from file:
     /root/qe_pseudos/Zn.UPF
     MD5 check sum: c608214d9520ac179f507641260889e3
     Pseudo is Projector augmented-wave + core cor, Zval = 12.0
     Generated using &quot;atomic&quot; code by A. Dal Corso  v.6.2.2
     Shape of augmentation charge: PSQ
     Using radial grid of 1201 points,  6 beta functions with: 
                l(1) =   0
                l(2) =   0
                l(3) =   1
                l(4) =   1
                l(5) =   2
                l(6) =   2
     Q(r) pseudized with 0 coefficients 


     atomic species   valence    mass     pseudopotential
     Zn               12.00    65.38000     Zn( 1.00)

     Starting magnetic structure 
     atomic species   magnetization
     Zn              0.500

     48 Sym. Ops., with inversion, found



   Cartesian axes

     site n.     atom                  positions (alat units)
         1        Zn     tau(   1) = (   0.5000000   0.5000000   0.5000000  )

     number of k points=     1  Methfessel-Paxton smearing, width (Ry)=  0.0100
                       cart. coord. in units 2pi/alat
        k(    1) = (   0.0000000   0.0000000   0.0000000), wk =   1.0000000

     Dense  grid:   929121 G-vectors     FFT dimensions: ( 125, 125, 125)

     Smooth grid:   505887 G-vectors     FFT dimensions: ( 100, 100, 100)

     Estimated max dynamical RAM per process >       3.70 GB

     Check: negative core charge=   -0.000002
     Generating pointlists ...
     new r_m :   0.4125 (alat units) 11.6927 (a.u.) for type    1

     Initial potential from superposition of free atoms

     starting charge      11.9963, renormalised to      12.0000

     negative rho (up, down):  9.231E-03 3.077E-03
     Starting wfcs are    9 randomized atomic wfcs +    1 random wfcs
     Checking if some PAW data can be deallocated... 

     total cpu time spent up to now is       11.8 secs

     Self-consistent Calculation

     iteration #  1     ecut=    30.00 Ry     beta= 0.40
     Davidson diagonalization with overlap
     ethr =  1.00E-02,  avg # of iterations =  5.5

     negative rho (up, down):  7.996E-03 4.299E-03

     total cpu time spent up to now is       14.7 secs

     total energy              =    -243.37542334 Ry
     estimated scf accuracy    <       1.24621235 Ry

     total magnetization       =    -0.00 Bohr mag/cell
     absolute magnetization    =     0.28 Bohr mag/cell

     iteration #  2     ecut=    30.00 Ry     beta= 0.40
     Davidson diagonalization with overlap
     ethr =  1.00E-02,  avg # of iterations =  1.0

     negative rho (up, down):  8.737E-03 6.589E-03

     total cpu time spent up to now is       16.5 secs

     total energy              =    -243.55278960 Ry
     estimated scf accuracy    <       0.46183635 Ry

     total magnetization       =    -0.00 Bohr mag/cell
     absolute magnetization    =     0.21 Bohr mag/cell

     iteration #  3     ecut=    30.00 Ry     beta= 0.40
     Davidson diagonalization with overlap
     ethr =  3.85E-03,  avg # of iterations =  1.0

     negative rho (up, down):  7.865E-03 6.351E-03

     total cpu time spent up to now is       18.4 secs

     total energy              =    -243.55848626 Ry
     estimated scf accuracy    <       0.00218811 Ry

     total magnetization       =     0.00 Bohr mag/cell
     absolute magnetization    =     0.05 Bohr mag/cell

     iteration #  4     ecut=    30.00 Ry     beta= 0.40
     Davidson diagonalization with overlap
     ethr =  1.82E-05,  avg # of iterations = 10.5

     negative rho (up, down):  7.133E-03 6.222E-03

     total cpu time spent up to now is       21.9 secs

     total energy              =    -243.55938581 Ry
     estimated scf accuracy    <       0.00028274 Ry

     total magnetization       =     0.00 Bohr mag/cell
     absolute magnetization    =     0.01 Bohr mag/cell

     iteration #  5     ecut=    30.00 Ry     beta= 0.40
     Davidson diagonalization with overlap
     ethr =  2.36E-06,  avg # of iterations =  4.0

     negative rho (up, down):  6.847E-03 6.279E-03

     total cpu time spent up to now is       24.1 secs

     total energy              =    -243.55942233 Ry
     estimated scf accuracy    <       0.00003536 Ry

     total magnetization       =     0.00 Bohr mag/cell
     absolute magnetization    =     0.01 Bohr mag/cell

     iteration #  6     ecut=    30.00 Ry     beta= 0.40
     Davidson diagonalization with overlap
     ethr =  2.95E-07,  avg # of iterations =  2.5

     negative rho (up, down):  6.695E-03 6.346E-03

     total cpu time spent up to now is       26.2 secs

     total energy              =    -243.55943788 Ry
     estimated scf accuracy    <       0.00000207 Ry

     total magnetization       =     0.00 Bohr mag/cell
     absolute magnetization    =     0.00 Bohr mag/cell

     iteration #  7     ecut=    30.00 Ry     beta= 0.40
     Davidson diagonalization with overlap
     ethr =  1.73E-08,  avg # of iterations =  4.0

     negative rho (up, down):  6.603E-03 6.398E-03

     total cpu time spent up to now is       28.7 secs

     total energy              =    -243.55944064 Ry
     estimated scf accuracy    <       0.00000151 Ry

     total magnetization       =     0.00 Bohr mag/cell
     absolute magnetization    =     0.00 Bohr mag/cell

     iteration #  8     ecut=    30.00 Ry     beta= 0.40
     Davidson diagonalization with overlap
     ethr =  1.26E-08,  avg # of iterations =  5.0

     negative rho (up, down):  6.550E-03 6.428E-03

     total cpu time spent up to now is       31.4 secs

     total energy              =    -243.55943923 Ry
     estimated scf accuracy    <       0.00000962 Ry

     total magnetization       =    -0.00 Bohr mag/cell
     absolute magnetization    =     0.00 Bohr mag/cell

     iteration #  9     ecut=    30.00 Ry     beta= 0.40
     Davidson diagonalization with overlap
     ethr =  1.26E-08,  avg # of iterations =  4.0

     negative rho (up, down):  6.521E-03 6.448E-03

     total cpu time spent up to now is       33.9 secs

     total energy              =    -243.55944050 Ry
     estimated scf accuracy    <       0.00000030 Ry

     total magnetization       =     0.00 Bohr mag/cell
     absolute magnetization    =     0.00 Bohr mag/cell

     iteration # 10     ecut=    30.00 Ry     beta= 0.40
     Davidson diagonalization with overlap
     ethr =  2.49E-09,  avg # of iterations =  2.0

     negative rho (up, down):  6.479E-03 6.480E-03
 
     Magnetic moment per site  (integrated on atomic sphere of radius R)
     atom   1 (R=0.413)  charge= 11.9998  magn=  0.0000

     total cpu time spent up to now is       35.7 secs

     End of self-consistent calculation

 ------ SPIN UP ------------


          k = 0.0000 0.0000 0.0000 ( 63077 PWs)   bands (ev):

   -10.2874 -10.2874 -10.2854 -10.2854 -10.2854  -5.9035  -1.0631  -1.0631
    -1.0631  -0.5019

 ------ SPIN DOWN ----------


          k = 0.0000 0.0000 0.0000 ( 63077 PWs)   bands (ev):

   -10.2876 -10.2876 -10.2855 -10.2855 -10.2855  -5.9035  -1.0626  -1.0626
    -1.0626  -0.5022

     the Fermi energy is    -2.2680 ev

!    total energy              =    -243.55944053 Ry
     total all-electron energy =     -3591.956463 Ry
     estimated scf accuracy    <       0.00000004 Ry
     smearing contrib. (-TS)   =       0.00000000 Ry
     internal energy E=F+TS    =    -243.55944053 Ry

     The total energy is F=E-TS. E is the sum of the following terms:
     one-electron contribution =    -194.37649464 Ry
     hartree contribution      =     107.55213651 Ry
     xc contribution           =     -46.90360675 Ry
     ewald contribution        =     -14.41375850 Ry
     one-center paw contrib.   =     -95.41771715 Ry

     total magnetization       =    -0.00 Bohr mag/cell
     absolute magnetization    =     0.00 Bohr mag/cell

     convergence has been achieved in  10 iterations

     negative rho (up, down):  6.479E-03 6.480E-03

     Forces acting on atoms (cartesian axes, Ry/au):

     atom    1 type  1   force =     0.00000000    0.00000000    0.00000000

     Total force =     0.000000     Total SCF correction =     0.000000


     Computing stress (Cartesian axis) and pressure


     negative rho (up, down):  6.479E-03 6.480E-03
          total   stress  (Ry/bohr**3)                   (kbar)     P=       -3.93
  -0.00002668   0.00000000   0.00000000           -3.93        0.00        0.00
   0.00000000  -0.00002668   0.00000000            0.00       -3.93        0.00
   0.00000000   0.00000000  -0.00002668            0.00        0.00       -3.93


     Writing all to output data dir /root/qe_scratch/atom_Zn.save/ :
     XML data file, charge density, pseudopotentials, collected wavefunctions
 
     init_run     :      8.42s CPU     11.51s WALL (       1 calls)
     electrons    :     21.24s CPU     23.93s WALL (       1 calls)
     forces       :      0.17s CPU      0.22s WALL (       1 calls)
     stress       :      0.39s CPU      0.41s WALL (       1 calls)

     Called by init_run:
     wfcinit      :      0.16s CPU      0.33s WALL (       1 calls)
     potinit      :      7.23s CPU      9.86s WALL (       1 calls)
     hinit0       :      0.30s CPU      0.42s WALL (       1 calls)

     Called by electrons:
     c_bands      :      4.30s CPU      4.33s WALL (      10 calls)
     sum_band     :      1.80s CPU      1.85s WALL (      10 calls)
     v_of_rho     :      1.22s CPU      1.55s WALL (      11 calls)
     newd         :      0.37s CPU      0.44s WALL (      11 calls)
                                        0.44s GPU  (      11 calls)
     PAW_pot      :      9.85s CPU     11.55s WALL (      11 calls)
     mix_rho      :      1.22s CPU      1.41s WALL (      10 calls)

     Called by c_bands:
     init_us_2    :      0.01s CPU      0.01s WALL (      46 calls)
     cegterg      :      4.15s CPU      4.18s WALL (      20 calls)

     Called by *egterg:
     cdiaghg      :      0.09s CPU      0.10s WALL (      99 calls)
                                        0.10s GPU  (      99 calls)
     h_psi        :      0.33s CPU      0.49s WALL (     101 calls)
                                        0.49s GPU  (     101 calls)
     s_psi        :      0.01s CPU      0.01s WALL (     101 calls)
     g_psi        :      0.00s CPU      0.00s WALL (      79 calls)
                                        0.00s GPU  (      79 calls)

     Called by h_psi:
     h_psi:calbec :      0.11s CPU      0.28s WALL (     101 calls)
                                        0.28s GPU  (     101 calls)
     vloc_psi     :      0.17s CPU      0.18s WALL (     101 calls)
                                        0.18s GPU  (     101 calls)
     add_vuspsi   :      0.01s CPU      0.02s WALL (     101 calls)
                                        0.02s GPU  (     101 calls)

     General routines
     calbec       :      0.11s CPU      0.25s WALL (     131 calls)
     fft          :      5.91s CPU      8.04s WALL (     313 calls)
                                        0.08s GPU  (     291 calls)
     ffts         :      2.56s CPU      3.34s WALL (      42 calls)
                                        0.00s GPU  (      20 calls)
     fftw         :      0.01s CPU      0.16s WALL (     222 calls)
                                        0.16s GPU  (     222 calls)
     interpolate  :      8.73s CPU     11.63s WALL (      22 calls)
 
     Parallel routines
 
     PWSCF        :     30.69s CPU     36.74s WALL

 
   This run was terminated on:   8:15:38   6May2026            

=------------------------------------------------------------------------------=
   JOB DONE.
=------------------------------------------------------------------------------=
Warning: ieee_invalid is signaling
Warning: ieee_divide_by_zero is signaling
Warning: ieee_inexact is signaling
FORTRAN STOP
