--------------------------------------------------------------------------
WARNING: Open MPI tried to bind a process but failed.  This is a
warning only; your job will continue, though performance may
be degraded.

  Local host:        3253031b5b37
  Application name:  /root/qe-7.3.1/bin/pw.x
  Error message:     failed to bind memory
  Location:          ../../../../../orte/mca/rtc/hwloc/rtc_hwloc.c:447

--------------------------------------------------------------------------

     Program PWSCF v.7.3.1 starts on  6May2026 at  7:52:34 

     This program is part of the open-source Quantum ESPRESSO suite
     for quantum simulation of materials; please cite
         "P. Giannozzi et al., J. Phys.:Condens. Matter 21 395502 (2009);
         "P. Giannozzi et al., J. Phys.:Condens. Matter 29 465901 (2017);
         "P. Giannozzi et al., J. Chem. Phys. 152 154105 (2020);
          URL http://www.quantum-espresso.org", 
     in publications or presentations arising from this work. More details at
     http://www.quantum-espresso.org/quote

     Parallel version (MPI & OpenMP), running on       8 processor cores
     Number of MPI processes:                 1
     Threads/MPI process:                     8

     MPI processes distributed on     1 nodes
     90802 MiB available memory on the printing compute node when the environment starts
 
     Reading input from atom_Cd.in

     Current dimensions of program PWSCF are:
     Max number of different atomic species (ntypx) = 10
     Max number of k-points (npk) =  40000
     Max angular momentum in pseudopotentials (lmaxx) =  4
     file Cd.UPF: wavefunction(s)  5S 4D renormalized
     Message from routine setup:
     using ibrav=0 with symmetry is DISCOURAGED, use correct ibrav instead
 
     Subspace diagonalization in iterative solution of the eigenvalue problem:
     a serial algorithm will be used

 
     G-vector sticks info
     --------------------
     sticks:   dense  smooth     PW     G-vecs:    dense   smooth      PW
     Sum       11513    7685   1917               929121   505887   63077
 
     Using Slab Decomposition
 


     bravais-lattice index     =            0
     lattice parameter (alat)  =      28.3459  a.u.
     unit-cell volume          =   22775.6289 (a.u.)^3
     number of atoms/cell      =            1
     number of atomic types    =            1
     number of electrons       =        12.00
     number of Kohn-Sham states=           10
     kinetic-energy cutoff     =      30.0000  Ry
     charge density cutoff     =     180.0000  Ry
     scf convergence threshold =      1.0E-07
     mixing beta               =       0.4000
     number of iterations used =            8  plain     mixing
     Exchange-correlation= SLA  PW   PBX  PBC
                           (   1   4   3   4   0   0   0)

     GPU acceleration is ACTIVE.  1 visible GPUs per MPI rank


     celldm(1)=  28.345892  celldm(2)=   0.000000  celldm(3)=   0.000000
     celldm(4)=   0.000000  celldm(5)=   0.000000  celldm(6)=   0.000000

     crystal axes: (cart. coord. in units of alat)
               a(1) = (   1.000000   0.000000   0.000000 )  
               a(2) = (   0.000000   1.000000   0.000000 )  
               a(3) = (   0.000000   0.000000   1.000000 )  

     reciprocal axes: (cart. coord. in units 2 pi/alat)
               b(1) = (  1.000000  0.000000  0.000000 )  
               b(2) = (  0.000000  1.000000  0.000000 )  
               b(3) = (  0.000000  0.000000  1.000000 )  


     PseudoPot. # 1 for Cd read from file:
     /root/qe_pseudos/Cd.UPF
     MD5 check sum: f937b97fdfaed69b45145e9d47a28171
     Pseudo is Projector augmented-wave + core cor, Zval = 12.0
     Generated using &quot;atomic&quot; code by A. Dal Corso  v.6.3
     Shape of augmentation charge: PSQ
     Using radial grid of 1239 points,  6 beta functions with: 
                l(1) =   0
                l(2) =   0
                l(3) =   1
                l(4) =   1
                l(5) =   2
                l(6) =   2
     Q(r) pseudized with 0 coefficients 


     atomic species   valence    mass     pseudopotential
     Cd               12.00   112.41400     Cd( 1.00)

     Starting magnetic structure 
     atomic species   magnetization
     Cd              0.500

     48 Sym. Ops., with inversion, found



   Cartesian axes

     site n.     atom                  positions (alat units)
         1        Cd     tau(   1) = (   0.5000000   0.5000000   0.5000000  )

     number of k points=     1  Methfessel-Paxton smearing, width (Ry)=  0.0100
                       cart. coord. in units 2pi/alat
        k(    1) = (   0.0000000   0.0000000   0.0000000), wk =   1.0000000

     Dense  grid:   929121 G-vectors     FFT dimensions: ( 125, 125, 125)

     Smooth grid:   505887 G-vectors     FFT dimensions: ( 100, 100, 100)

     Estimated max dynamical RAM per process >       3.70 GB
     Generating pointlists ...
     new r_m :   0.4125 (alat units) 11.6927 (a.u.) for type    1

     Initial potential from superposition of free atoms

     starting charge      11.9951, renormalised to      12.0000

     negative rho (up, down):  8.526E-02 2.842E-02
     Starting wfcs are    9 randomized atomic wfcs +    1 random wfcs
     Checking if some PAW data can be deallocated... 

     total cpu time spent up to now is       12.2 secs

     Self-consistent Calculation

     iteration #  1     ecut=    30.00 Ry     beta= 0.40
     Davidson diagonalization with overlap
     ethr =  1.00E-02,  avg # of iterations =  7.0

     negative rho (up, down):  7.767E-02 4.356E-02

     total cpu time spent up to now is       15.2 secs

     total energy              =    -381.58205401 Ry
     estimated scf accuracy    <       0.45895615 Ry

     total magnetization       =     0.00 Bohr mag/cell
     absolute magnetization    =     0.07 Bohr mag/cell

     iteration #  2     ecut=    30.00 Ry     beta= 0.40
     Davidson diagonalization with overlap
     ethr =  3.82E-03,  avg # of iterations =  1.0

     negative rho (up, down):  1.085E-01 8.990E-02

     total cpu time spent up to now is       17.1 secs

     total energy              =    -381.70283503 Ry
     estimated scf accuracy    <       0.14461876 Ry

     total magnetization       =    -0.00 Bohr mag/cell
     absolute magnetization    =     0.11 Bohr mag/cell

     iteration #  3     ecut=    30.00 Ry     beta= 0.40
     Davidson diagonalization with overlap
     ethr =  1.21E-03,  avg # of iterations =  1.5

     negative rho (up, down):  9.592E-02 8.068E-02

     total cpu time spent up to now is       19.0 secs

     total energy              =    -381.72090510 Ry
     estimated scf accuracy    <       0.01296425 Ry

     total magnetization       =     0.00 Bohr mag/cell
     absolute magnetization    =     0.07 Bohr mag/cell

     iteration #  4     ecut=    30.00 Ry     beta= 0.40
     Davidson diagonalization with overlap
     ethr =  1.08E-04,  avg # of iterations =  9.0

     negative rho (up, down):  7.996E-02 6.987E-02

     total cpu time spent up to now is       21.8 secs

     total energy              =    -381.72440724 Ry
     estimated scf accuracy    <       0.00167069 Ry

     total magnetization       =     0.00 Bohr mag/cell
     absolute magnetization    =     0.03 Bohr mag/cell

     iteration #  5     ecut=    30.00 Ry     beta= 0.40
     Davidson diagonalization with overlap
     ethr =  1.39E-05,  avg # of iterations =  8.0

     negative rho (up, down):  7.164E-02 6.621E-02

     total cpu time spent up to now is       24.7 secs

     total energy              =    -381.72572027 Ry
     estimated scf accuracy    <       0.00039458 Ry

     total magnetization       =     0.00 Bohr mag/cell
     absolute magnetization    =     0.02 Bohr mag/cell

     iteration #  6     ecut=    30.00 Ry     beta= 0.40
     Davidson diagonalization with overlap
     ethr =  3.29E-06,  avg # of iterations =  5.0

     negative rho (up, down):  6.710E-02 6.419E-02

     total cpu time spent up to now is       27.1 secs

     total energy              =    -381.72621570 Ry
     estimated scf accuracy    <       0.00015612 Ry

     total magnetization       =     0.00 Bohr mag/cell
     absolute magnetization    =     0.01 Bohr mag/cell

     iteration #  7     ecut=    30.00 Ry     beta= 0.40
     Davidson diagonalization with overlap
     ethr =  1.30E-06,  avg # of iterations =  8.5

     negative rho (up, down):  6.570E-02 6.363E-02

     total cpu time spent up to now is       30.2 secs

     total energy              =    -381.72645701 Ry
     estimated scf accuracy    <       0.00002362 Ry

     total magnetization       =     0.00 Bohr mag/cell
     absolute magnetization    =     0.00 Bohr mag/cell

     iteration #  8     ecut=    30.00 Ry     beta= 0.40
     Davidson diagonalization with overlap
     ethr =  1.97E-07,  avg # of iterations =  2.5

     negative rho (up, down):  6.495E-02 6.361E-02

     total cpu time spent up to now is       32.4 secs

     total energy              =    -381.72654659 Ry
     estimated scf accuracy    <       0.00000271 Ry

     total magnetization       =     0.00 Bohr mag/cell
     absolute magnetization    =     0.00 Bohr mag/cell

     iteration #  9     ecut=    30.00 Ry     beta= 0.40
     Davidson diagonalization with overlap
     ethr =  2.26E-08,  avg # of iterations =  4.0

     negative rho (up, down):  6.465E-02 6.372E-02

     total cpu time spent up to now is       34.8 secs

     total energy              =    -381.72658281 Ry
     estimated scf accuracy    <       0.00000187 Ry

     total magnetization       =     0.00 Bohr mag/cell
     absolute magnetization    =     0.00 Bohr mag/cell

     iteration # 10     ecut=    30.00 Ry     beta= 0.40
     Davidson diagonalization with overlap
     ethr =  1.56E-08,  avg # of iterations =  3.5

     negative rho (up, down):  6.430E-02 6.383E-02

     total cpu time spent up to now is       37.4 secs

     total energy              =    -381.72659853 Ry
     estimated scf accuracy    <       0.00000314 Ry

     total magnetization       =     0.00 Bohr mag/cell
     absolute magnetization    =     0.00 Bohr mag/cell

     iteration # 11     ecut=    30.00 Ry     beta= 0.40
     Davidson diagonalization with overlap
     ethr =  1.56E-08,  avg # of iterations =  2.0

     negative rho (up, down):  6.414E-02 6.390E-02

     total cpu time spent up to now is       39.4 secs

     total energy              =    -381.72660438 Ry
     estimated scf accuracy    <       0.00000018 Ry

     total magnetization       =     0.00 Bohr mag/cell
     absolute magnetization    =     0.00 Bohr mag/cell

     iteration # 12     ecut=    30.00 Ry     beta= 0.40
     Davidson diagonalization with overlap
     ethr =  1.47E-09,  avg # of iterations =  5.5

     negative rho (up, down):  6.407E-02 6.395E-02

     total cpu time spent up to now is       42.0 secs

     total energy              =    -381.72660673 Ry
     estimated scf accuracy    <       0.00000013 Ry

     total magnetization       =     0.00 Bohr mag/cell
     absolute magnetization    =     0.00 Bohr mag/cell

     iteration # 13     ecut=    30.00 Ry     beta= 0.40
     Davidson diagonalization with overlap
     ethr =  1.07E-09,  avg # of iterations =  3.0

     negative rho (up, down):  6.404E-02 6.398E-02

     total cpu time spent up to now is       44.3 secs

     total energy              =    -381.72660744 Ry
     estimated scf accuracy    <       0.00000017 Ry

     total magnetization       =    -0.00 Bohr mag/cell
     absolute magnetization    =     0.00 Bohr mag/cell

     iteration # 14     ecut=    30.00 Ry     beta= 0.40
     Davidson diagonalization with overlap
     ethr =  1.07E-09,  avg # of iterations =  2.0

     negative rho (up, down):  6.403E-02 6.400E-02

     total cpu time spent up to now is       46.6 secs

     total energy              =    -381.72660764 Ry
     estimated scf accuracy    <       0.00000014 Ry

     total magnetization       =    -0.00 Bohr mag/cell
     absolute magnetization    =     0.00 Bohr mag/cell

     iteration # 15     ecut=    30.00 Ry     beta= 0.40
     Davidson diagonalization with overlap
     ethr =  1.07E-09,  avg # of iterations =  1.0

     negative rho (up, down):  6.402E-02 6.402E-02
 
     Magnetic moment per site  (integrated on atomic sphere of radius R)
     atom   1 (R=0.413)  charge= 11.9999  magn= -0.0000

     total cpu time spent up to now is       48.3 secs

     End of self-consistent calculation

 ------ SPIN UP ------------


          k = 0.0000 0.0000 0.0000 ( 63077 PWs)   bands (ev):

   -11.6280 -11.6280 -11.6249 -11.6249 -11.6249  -5.6148  -1.2584  -1.2584
    -1.2584  -0.8242

 ------ SPIN DOWN ----------


          k = 0.0000 0.0000 0.0000 ( 63077 PWs)   bands (ev):

   -11.6280 -11.6280 -11.6251 -11.6251 -11.6251  -5.6152  -1.2582  -1.2582
    -1.2582  -0.8241

     the Fermi energy is    -2.8448 ev

!    total energy              =    -381.72660782 Ry
     total all-electron energy =    -11189.276043 Ry
     estimated scf accuracy    <       0.00000004 Ry
     smearing contrib. (-TS)   =       0.00000000 Ry
     internal energy E=F+TS    =    -381.72660782 Ry

     The total energy is F=E-TS. E is the sum of the following terms:
     one-electron contribution =    -131.94202759 Ry
     hartree contribution      =      72.99534177 Ry
     xc contribution           =     -22.72182727 Ry
     ewald contribution        =     -14.41375850 Ry
     one-center paw contrib.   =    -285.64433624 Ry

     total magnetization       =    -0.00 Bohr mag/cell
     absolute magnetization    =     0.00 Bohr mag/cell

     convergence has been achieved in  15 iterations

     negative rho (up, down):  6.402E-02 6.402E-02

     Forces acting on atoms (cartesian axes, Ry/au):

     atom    1 type  1   force =     0.00000000    0.00000000    0.00000000

     Total force =     0.000000     Total SCF correction =     0.000000


     Computing stress (Cartesian axis) and pressure


     negative rho (up, down):  6.402E-02 6.402E-02
          total   stress  (Ry/bohr**3)                   (kbar)     P=       -1.72
  -0.00001166   0.00000000   0.00000000           -1.72        0.00        0.00
   0.00000000  -0.00001166   0.00000000            0.00       -1.72        0.00
   0.00000000   0.00000000  -0.00001166            0.00        0.00       -1.72


     Writing all to output data dir /root/qe_scratch/atom_Cd.save/ :
     XML data file, charge density, pseudopotentials, collected wavefunctions
 
     init_run     :      8.74s CPU     11.80s WALL (       1 calls)
     electrons    :     32.58s CPU     36.25s WALL (       1 calls)
     forces       :      0.17s CPU      0.22s WALL (       1 calls)
     stress       :      0.37s CPU      0.41s WALL (       1 calls)

     Called by init_run:
     wfcinit      :      0.17s CPU      0.33s WALL (       1 calls)
     potinit      :      7.51s CPU     10.12s WALL (       1 calls)
     hinit0       :      0.32s CPU      0.43s WALL (       1 calls)

     Called by electrons:
     c_bands      :      7.34s CPU      7.37s WALL (      15 calls)
     sum_band     :      2.67s CPU      2.72s WALL (      15 calls)
     v_of_rho     :      1.77s CPU      2.20s WALL (      16 calls)
     newd         :      0.50s CPU      0.59s WALL (      16 calls)
                                        0.59s GPU  (      16 calls)
     PAW_pot      :     13.93s CPU     16.23s WALL (      16 calls)
     mix_rho      :      2.26s CPU      2.45s WALL (      15 calls)

     Called by c_bands:
     init_us_2    :      0.02s CPU      0.02s WALL (      66 calls)
     cegterg      :      7.12s CPU      7.14s WALL (      30 calls)

     Called by *egterg:
     cdiaghg      :      0.12s CPU      0.14s WALL (     157 calls)
                                        0.14s GPU  (     157 calls)
     h_psi        :      0.46s CPU      0.61s WALL (     159 calls)
                                        0.61s GPU  (     159 calls)
     s_psi        :      0.01s CPU      0.01s WALL (     159 calls)
     g_psi        :      0.00s CPU      0.00s WALL (     127 calls)
                                        0.00s GPU  (     127 calls)

     Called by h_psi:
     h_psi:calbec :      0.12s CPU      0.30s WALL (     159 calls)
                                        0.30s GPU  (     159 calls)
     vloc_psi     :      0.25s CPU      0.27s WALL (     159 calls)
                                        0.27s GPU  (     159 calls)
     add_vuspsi   :      0.01s CPU      0.03s WALL (     159 calls)
                                        0.03s GPU  (     159 calls)

     General routines
     calbec       :      0.12s CPU      0.26s WALL (     199 calls)
     fft          :      6.75s CPU      9.03s WALL (     438 calls)
                                        0.12s GPU  (     406 calls)
     ffts         :      3.01s CPU      3.93s WALL (      62 calls)
                                        0.00s GPU  (      30 calls)
     fftw         :      0.01s CPU      0.24s WALL (     348 calls)
                                        0.24s GPU  (     348 calls)
     interpolate  :     10.14s CPU     13.30s WALL (      32 calls)
 
     Parallel routines
 
     PWSCF        :     42.41s CPU     49.39s WALL

 
   This run was terminated on:   7:53:23   6May2026            

=------------------------------------------------------------------------------=
   JOB DONE.
=------------------------------------------------------------------------------=
Warning: ieee_invalid is signaling
Warning: ieee_divide_by_zero is signaling
Warning: ieee_inexact is signaling
FORTRAN STOP
