--------------------------------------------------------------------------
WARNING: Open MPI tried to bind a process but failed.  This is a
warning only; your job will continue, though performance may
be degraded.

  Local host:        3253031b5b37
  Application name:  /root/qe-7.3.1/bin/pw.x
  Error message:     failed to bind memory
  Location:          ../../../../../orte/mca/rtc/hwloc/rtc_hwloc.c:447

--------------------------------------------------------------------------

     Program PWSCF v.7.3.1 starts on  6May2026 at  8: 8:22 

     This program is part of the open-source Quantum ESPRESSO suite
     for quantum simulation of materials; please cite
         "P. Giannozzi et al., J. Phys.:Condens. Matter 21 395502 (2009);
         "P. Giannozzi et al., J. Phys.:Condens. Matter 29 465901 (2017);
         "P. Giannozzi et al., J. Chem. Phys. 152 154105 (2020);
          URL http://www.quantum-espresso.org", 
     in publications or presentations arising from this work. More details at
     http://www.quantum-espresso.org/quote

     Parallel version (MPI & OpenMP), running on       8 processor cores
     Number of MPI processes:                 1
     Threads/MPI process:                     8

     MPI processes distributed on     1 nodes
     89641 MiB available memory on the printing compute node when the environment starts
 
     Reading input from atom_Si.in

     Current dimensions of program PWSCF are:
     Max number of different atomic species (ntypx) = 10
     Max number of k-points (npk) =  40000
     Max angular momentum in pseudopotentials (lmaxx) =  4
     Message from routine setup:
     using ibrav=0 with symmetry is DISCOURAGED, use correct ibrav instead
 
     Subspace diagonalization in iterative solution of the eigenvalue problem:
     a serial algorithm will be used

 
     G-vector sticks info
     --------------------
     sticks:   dense  smooth     PW     G-vecs:    dense   smooth      PW
     Sum       11513    7685   1917               929121   505887   63077
 
     Using Slab Decomposition
 


     bravais-lattice index     =            0
     lattice parameter (alat)  =      28.3459  a.u.
     unit-cell volume          =   22775.6289 (a.u.)^3
     number of atoms/cell      =            1
     number of atomic types    =            1
     number of electrons       =         4.00
     number of Kohn-Sham states=            6
     kinetic-energy cutoff     =      30.0000  Ry
     charge density cutoff     =     180.0000  Ry
     scf convergence threshold =      1.0E-07
     mixing beta               =       0.4000
     number of iterations used =            8  plain     mixing
     Exchange-correlation= PBE
                           (   1   4   3   4   0   0   0)

     GPU acceleration is ACTIVE.  1 visible GPUs per MPI rank


     celldm(1)=  28.345892  celldm(2)=   0.000000  celldm(3)=   0.000000
     celldm(4)=   0.000000  celldm(5)=   0.000000  celldm(6)=   0.000000

     crystal axes: (cart. coord. in units of alat)
               a(1) = (   1.000000   0.000000   0.000000 )  
               a(2) = (   0.000000   1.000000   0.000000 )  
               a(3) = (   0.000000   0.000000   1.000000 )  

     reciprocal axes: (cart. coord. in units 2 pi/alat)
               b(1) = (  1.000000  0.000000  0.000000 )  
               b(2) = (  0.000000  1.000000  0.000000 )  
               b(3) = (  0.000000  0.000000  1.000000 )  


     PseudoPot. # 1 for Si read from file:
     /root/qe_pseudos/Si.UPF
     MD5 check sum: 78279d3766ecb5dbdc0623f3e93c9a23
     Pseudo is Ultrasoft + core correction, Zval =  4.0
     Generated using &quot;atomic&quot; code by A. Dal Corso  v.6.3
     Using radial grid of 1141 points,  4 beta functions with: 
                l(1) =   0
                l(2) =   0
                l(3) =   1
                l(4) =   1
     Q(r) pseudized with 0 coefficients 


     atomic species   valence    mass     pseudopotential
     Si                4.00    28.08500     Si( 1.00)

     Starting magnetic structure 
     atomic species   magnetization
     Si              0.500

     48 Sym. Ops., with inversion, found



   Cartesian axes

     site n.     atom                  positions (alat units)
         1        Si     tau(   1) = (   0.5000000   0.5000000   0.5000000  )

     number of k points=     1  Methfessel-Paxton smearing, width (Ry)=  0.0100
                       cart. coord. in units 2pi/alat
        k(    1) = (   0.0000000   0.0000000   0.0000000), wk =   1.0000000

     Dense  grid:   929121 G-vectors     FFT dimensions: ( 125, 125, 125)

     Smooth grid:   505887 G-vectors     FFT dimensions: ( 100, 100, 100)

     Estimated max dynamical RAM per process >       1.59 GB
     Generating pointlists ...
     new r_m :   0.4125 (alat units) 11.6927 (a.u.) for type    1

     Initial potential from superposition of free atoms

     starting charge       3.9994, renormalised to       4.0000

     negative rho (up, down):  1.098E-04 3.659E-05
     Starting wfcs are    4 randomized atomic wfcs +    2 random wfcs

     total cpu time spent up to now is       10.6 secs

     Self-consistent Calculation

     iteration #  1     ecut=    30.00 Ry     beta= 0.40
     Davidson diagonalization with overlap
     ethr =  1.00E-02,  avg # of iterations =  5.5

     Threshold (ethr) on eigenvalues was too large:
     Diagonalizing with lowered threshold

     Davidson diagonalization with overlap
     c_bands:  1 eigenvalues not converged
     c_bands:  1 eigenvalues not converged
     ethr =  1.41E-05,  avg # of iterations = 20.0

     negative rho (up, down):  4.245E-05 2.297E-05

     total cpu time spent up to now is       13.6 secs

     total energy              =      -9.88325738 Ry
     estimated scf accuracy    <       0.00098952 Ry

     total magnetization       =     2.00 Bohr mag/cell
     absolute magnetization    =     2.00 Bohr mag/cell

     iteration #  2     ecut=    30.00 Ry     beta= 0.40
     Davidson diagonalization with overlap
     ethr =  2.47E-05,  avg # of iterations =  2.0

     negative rho (up, down):  5.614E-05 3.060E-05

     total cpu time spent up to now is       14.5 secs

     total energy              =      -9.88424663 Ry
     estimated scf accuracy    <       0.00023449 Ry

     total magnetization       =     2.00 Bohr mag/cell
     absolute magnetization    =     2.00 Bohr mag/cell

     iteration #  3     ecut=    30.00 Ry     beta= 0.40
     Davidson diagonalization with overlap
     ethr =  5.86E-06,  avg # of iterations =  9.0

     negative rho (up, down):  7.048E-05 4.133E-05

     total cpu time spent up to now is       16.6 secs

     total energy              =      -9.88457318 Ry
     estimated scf accuracy    <       0.00004019 Ry

     total magnetization       =     2.00 Bohr mag/cell
     absolute magnetization    =     2.00 Bohr mag/cell

     iteration #  4     ecut=    30.00 Ry     beta= 0.40
     Davidson diagonalization with overlap
     ethr =  1.00E-06,  avg # of iterations =  5.5

     negative rho (up, down):  5.789E-05 4.668E-05

     total cpu time spent up to now is       18.2 secs

     total energy              =      -9.88460112 Ry
     estimated scf accuracy    <       0.00001449 Ry

     total magnetization       =     2.00 Bohr mag/cell
     absolute magnetization    =     2.00 Bohr mag/cell

     iteration #  5     ecut=    30.00 Ry     beta= 0.40
     Davidson diagonalization with overlap
     ethr =  3.62E-07,  avg # of iterations =  1.5

     negative rho (up, down):  5.100E-05 4.695E-05

     total cpu time spent up to now is       19.1 secs

     total energy              =      -9.88460147 Ry
     estimated scf accuracy    <       0.00000028 Ry

     total magnetization       =     2.00 Bohr mag/cell
     absolute magnetization    =     2.00 Bohr mag/cell

     iteration #  6     ecut=    30.00 Ry     beta= 0.40
     Davidson diagonalization with overlap
     ethr =  7.01E-09,  avg # of iterations =  2.0

     negative rho (up, down):  5.268E-05 5.124E-05
 
     Magnetic moment per site  (integrated on atomic sphere of radius R)
     atom   1 (R=0.413)  charge=  4.0000  magn=  2.0000

     total cpu time spent up to now is       20.0 secs

     End of self-consistent calculation

 ------ SPIN UP ------------


          k = 0.0000 0.0000 0.0000 ( 63077 PWs)   bands (ev):

   -11.3168  -4.5545  -4.5545  -4.5545  -0.5463   0.1377

 ------ SPIN DOWN ----------


          k = 0.0000 0.0000 0.0000 ( 63077 PWs)   bands (ev):

    -9.5867  -2.9034  -2.9034  -2.9034  -0.2540   0.4101

     the Fermi energy is    -4.5271 ev

!    total energy              =      -9.88460175 Ry
     estimated scf accuracy    <          2.1E-09 Ry
     smearing contrib. (-TS)   =      -0.00373359 Ry
     internal energy E=F+TS    =      -9.88086816 Ry

     The total energy is F=E-TS. E is the sum of the following terms:
     one-electron contribution =      -8.06844739 Ry
     hartree contribution      =       4.34421082 Ry
     xc contribution           =      -4.55510282 Ry
     ewald contribution        =      -1.60152877 Ry

     total magnetization       =     2.00 Bohr mag/cell
     absolute magnetization    =     2.00 Bohr mag/cell

     convergence has been achieved in   6 iterations

     negative rho (up, down):  5.268E-05 5.124E-05

     Forces acting on atoms (cartesian axes, Ry/au):

     atom    1 type  1   force =     0.00000000    0.00000000    0.00000000

     Total force =     0.000000     Total SCF correction =     0.000000


     Computing stress (Cartesian axis) and pressure


     negative rho (up, down):  5.268E-05 5.124E-05
          total   stress  (Ry/bohr**3)                   (kbar)     P=       -0.00
  -0.00000001   0.00000000   0.00000000           -0.00        0.00        0.00
   0.00000000  -0.00000001   0.00000000            0.00       -0.00        0.00
   0.00000000   0.00000000  -0.00000001            0.00        0.00       -0.00


     Writing all to output data dir /root/qe_scratch/atom_Si.save/ :
     XML data file, charge density, pseudopotentials, collected wavefunctions
 
     init_run     :      7.56s CPU     10.40s WALL (       1 calls)
     electrons    :      8.69s CPU      9.46s WALL (       1 calls)
     forces       :      0.16s CPU      0.20s WALL (       1 calls)
     stress       :      0.17s CPU      0.22s WALL (       1 calls)

     Called by init_run:
     wfcinit      :      0.14s CPU      0.34s WALL (       1 calls)
     potinit      :      6.47s CPU      8.83s WALL (       1 calls)
     hinit0       :      0.28s CPU      0.37s WALL (       1 calls)

     Called by electrons:
     c_bands      :      4.34s CPU      4.36s WALL (       7 calls)
     sum_band     :      0.94s CPU      0.97s WALL (       7 calls)
     v_of_rho     :      0.73s CPU      1.00s WALL (       7 calls)
     newd         :      0.14s CPU      0.20s WALL (       7 calls)
                                        0.20s GPU  (       7 calls)
     mix_rho      :      0.52s CPU      0.63s WALL (       7 calls)

     Called by c_bands:
     init_us_2    :      0.01s CPU      0.01s WALL (      34 calls)
     cegterg      :      4.28s CPU      4.29s WALL (      14 calls)

     Called by *egterg:
     cdiaghg      :      0.06s CPU      0.08s WALL (     103 calls)
                                        0.08s GPU  (     103 calls)
     h_psi        :      0.26s CPU      0.43s WALL (     107 calls)
                                        0.43s GPU  (     107 calls)
     s_psi        :      0.01s CPU      0.01s WALL (     107 calls)
     g_psi        :      0.00s CPU      0.00s WALL (      91 calls)
                                        0.00s GPU  (      91 calls)

     Called by h_psi:
     h_psi:calbec :      0.10s CPU      0.30s WALL (     107 calls)
                                        0.30s GPU  (     107 calls)
     vloc_psi     :      0.11s CPU      0.11s WALL (     107 calls)
                                        0.11s GPU  (     107 calls)
     add_vuspsi   :      0.01s CPU      0.01s WALL (     107 calls)
                                        0.01s GPU  (     107 calls)

     General routines
     calbec       :      0.10s CPU      0.27s WALL (     131 calls)
     fft          :      5.38s CPU      7.25s WALL (     215 calls)
                                        0.06s GPU  (     201 calls)
     ffts         :      2.31s CPU      3.03s WALL (      28 calls)
                                        0.00s GPU  (      14 calls)
     fftw         :      0.01s CPU      0.09s WALL (     228 calls)
                                        0.09s GPU  (     228 calls)
     interpolate  :      7.86s CPU     10.45s WALL (      14 calls)
 
     Parallel routines
 
     PWSCF        :     16.92s CPU     20.76s WALL

 
   This run was terminated on:   8: 8:43   6May2026            

=------------------------------------------------------------------------------=
   JOB DONE.
=------------------------------------------------------------------------------=
Warning: ieee_invalid is signaling
Warning: ieee_divide_by_zero is signaling
Warning: ieee_inexact is signaling
FORTRAN STOP
