--------------------------------------------------------------------------
WARNING: Open MPI tried to bind a process but failed.  This is a
warning only; your job will continue, though performance may
be degraded.

  Local host:        3253031b5b37
  Application name:  /root/qe-7.3.1/bin/pw.x
  Error message:     failed to bind memory
  Location:          ../../../../../orte/mca/rtc/hwloc/rtc_hwloc.c:447

--------------------------------------------------------------------------

     Program PWSCF v.7.3.1 starts on  6May2026 at  7:52: 3 

     This program is part of the open-source Quantum ESPRESSO suite
     for quantum simulation of materials; please cite
         "P. Giannozzi et al., J. Phys.:Condens. Matter 21 395502 (2009);
         "P. Giannozzi et al., J. Phys.:Condens. Matter 29 465901 (2017);
         "P. Giannozzi et al., J. Chem. Phys. 152 154105 (2020);
          URL http://www.quantum-espresso.org", 
     in publications or presentations arising from this work. More details at
     http://www.quantum-espresso.org/quote

     Parallel version (MPI & OpenMP), running on       8 processor cores
     Number of MPI processes:                 1
     Threads/MPI process:                     8

     MPI processes distributed on     1 nodes
     90872 MiB available memory on the printing compute node when the environment starts
 
     Reading input from atom_Ca.in

     Current dimensions of program PWSCF are:
     Max number of different atomic species (ntypx) = 10
     Max number of k-points (npk) =  40000
     Max angular momentum in pseudopotentials (lmaxx) =  4
     file Ca.UPF: wavefunction(s)  3S renormalized
     Message from routine setup:
     using ibrav=0 with symmetry is DISCOURAGED, use correct ibrav instead
 
     Subspace diagonalization in iterative solution of the eigenvalue problem:
     a serial algorithm will be used

 
     G-vector sticks info
     --------------------
     sticks:   dense  smooth     PW     G-vecs:    dense   smooth      PW
     Sum       11513    7685   1917               929121   505887   63077
 
     Using Slab Decomposition
 


     bravais-lattice index     =            0
     lattice parameter (alat)  =      28.3459  a.u.
     unit-cell volume          =   22775.6289 (a.u.)^3
     number of atoms/cell      =            1
     number of atomic types    =            1
     number of electrons       =        10.00
     number of Kohn-Sham states=            9
     kinetic-energy cutoff     =      30.0000  Ry
     charge density cutoff     =     180.0000  Ry
     scf convergence threshold =      1.0E-07
     mixing beta               =       0.4000
     number of iterations used =            8  plain     mixing
     Exchange-correlation= SLA  PW   PBX  PBC
                           (   1   4   3   4   0   0   0)

     GPU acceleration is ACTIVE.  1 visible GPUs per MPI rank


     celldm(1)=  28.345892  celldm(2)=   0.000000  celldm(3)=   0.000000
     celldm(4)=   0.000000  celldm(5)=   0.000000  celldm(6)=   0.000000

     crystal axes: (cart. coord. in units of alat)
               a(1) = (   1.000000   0.000000   0.000000 )  
               a(2) = (   0.000000   1.000000   0.000000 )  
               a(3) = (   0.000000   0.000000   1.000000 )  

     reciprocal axes: (cart. coord. in units 2 pi/alat)
               b(1) = (  1.000000  0.000000  0.000000 )  
               b(2) = (  0.000000  1.000000  0.000000 )  
               b(3) = (  0.000000  0.000000  1.000000 )  


     PseudoPot. # 1 for Ca read from file:
     /root/qe_pseudos/Ca.UPF
     MD5 check sum: 1e11ab70c77b02a7d7d676f41d47b751
     Pseudo is Projector augmented-wave + core cor, Zval = 10.0
     Generated using &quot;atomic&quot; code by A. Dal Corso  v.6.4.1
     Shape of augmentation charge: PSQ
     Using radial grid of 1169 points,  6 beta functions with: 
                l(1) =   0
                l(2) =   0
                l(3) =   1
                l(4) =   1
                l(5) =   2
                l(6) =   2
     Q(r) pseudized with 0 coefficients 


     atomic species   valence    mass     pseudopotential
     Ca               10.00    40.07800     Ca( 1.00)

     Starting magnetic structure 
     atomic species   magnetization
     Ca              0.500

     48 Sym. Ops., with inversion, found



   Cartesian axes

     site n.     atom                  positions (alat units)
         1        Ca     tau(   1) = (   0.5000000   0.5000000   0.5000000  )

     number of k points=     1  Methfessel-Paxton smearing, width (Ry)=  0.0100
                       cart. coord. in units 2pi/alat
        k(    1) = (   0.0000000   0.0000000   0.0000000), wk =   1.0000000

     Dense  grid:   929121 G-vectors     FFT dimensions: ( 125, 125, 125)

     Smooth grid:   505887 G-vectors     FFT dimensions: ( 100, 100, 100)

     Estimated max dynamical RAM per process >       3.70 GB
     Generating pointlists ...
     new r_m :   0.4125 (alat units) 11.6927 (a.u.) for type    1

     Initial potential from superposition of free atoms

     starting charge       9.9951, renormalised to      10.0000

     negative rho (up, down):  2.890E-03 9.633E-04
     Starting wfcs are    8 randomized atomic wfcs +    1 random wfcs
     Checking if some PAW data can be deallocated... 

     total cpu time spent up to now is       11.8 secs

     Self-consistent Calculation

     iteration #  1     ecut=    30.00 Ry     beta= 0.40
     Davidson diagonalization with overlap
     ethr =  1.00E-02,  avg # of iterations =  6.5

     negative rho (up, down):  2.484E-03 1.098E-03

     total cpu time spent up to now is       14.7 secs

     total energy              =    -133.23257918 Ry
     estimated scf accuracy    <       0.24214102 Ry

     total magnetization       =    -0.00 Bohr mag/cell
     absolute magnetization    =     0.17 Bohr mag/cell

     iteration #  2     ecut=    30.00 Ry     beta= 0.40
     Davidson diagonalization with overlap
     ethr =  2.42E-03,  avg # of iterations =  1.0

     negative rho (up, down):  2.154E-03 1.428E-03

     total cpu time spent up to now is       16.5 secs

     total energy              =    -133.37192180 Ry
     estimated scf accuracy    <       0.08982738 Ry

     total magnetization       =     0.00 Bohr mag/cell
     absolute magnetization    =     0.12 Bohr mag/cell

     iteration #  3     ecut=    30.00 Ry     beta= 0.40
     Davidson diagonalization with overlap
     ethr =  8.98E-04,  avg # of iterations =  1.0

     negative rho (up, down):  1.925E-03 1.502E-03

     total cpu time spent up to now is       18.3 secs

     total energy              =    -133.37465069 Ry
     estimated scf accuracy    <       0.00003896 Ry

     total magnetization       =     0.00 Bohr mag/cell
     absolute magnetization    =     0.04 Bohr mag/cell

     iteration #  4     ecut=    30.00 Ry     beta= 0.40
     Davidson diagonalization with overlap
     c_bands:  1 eigenvalues not converged
     c_bands:  1 eigenvalues not converged
     ethr =  3.90E-07,  avg # of iterations = 20.0

     negative rho (up, down):  1.769E-03 1.537E-03

     total cpu time spent up to now is       22.5 secs

     total energy              =    -133.37485929 Ry
     estimated scf accuracy    <       0.00001162 Ry

     total magnetization       =     0.00 Bohr mag/cell
     absolute magnetization    =     0.01 Bohr mag/cell

     iteration #  5     ecut=    30.00 Ry     beta= 0.40
     Davidson diagonalization with overlap
     ethr =  1.16E-07,  avg # of iterations =  4.0

     negative rho (up, down):  1.695E-03 1.569E-03

     total cpu time spent up to now is       24.8 secs

     total energy              =    -133.37487278 Ry
     estimated scf accuracy    <       0.00000154 Ry

     total magnetization       =     0.00 Bohr mag/cell
     absolute magnetization    =     0.00 Bohr mag/cell

     iteration #  6     ecut=    30.00 Ry     beta= 0.40
     Davidson diagonalization with overlap
     ethr =  1.54E-08,  avg # of iterations =  3.5

     negative rho (up, down):  1.652E-03 1.651E-03
 
     Magnetic moment per site  (integrated on atomic sphere of radius R)
     atom   1 (R=0.413)  charge=  9.9995  magn=  0.0000

     total cpu time spent up to now is       26.8 secs

     End of self-consistent calculation

 ------ SPIN UP ------------


          k = 0.0000 0.0000 0.0000 ( 63077 PWs)   bands (ev):

   -46.9728 -27.8858 -27.8858 -27.8858  -3.6407  -1.7756  -1.2773  -1.2773
    -1.2773

 ------ SPIN DOWN ----------


          k = 0.0000 0.0000 0.0000 ( 63077 PWs)   bands (ev):

   -46.9727 -27.8859 -27.8859 -27.8859  -3.6403  -1.7749  -1.2780  -1.2780
    -1.2779

     the Fermi energy is    -2.9427 ev

!    total energy              =    -133.37487469 Ry
     total all-electron energy =     -1360.645892 Ry
     estimated scf accuracy    <       0.00000004 Ry
     smearing contrib. (-TS)   =       0.00000000 Ry
     internal energy E=F+TS    =    -133.37487469 Ry

     The total energy is F=E-TS. E is the sum of the following terms:
     one-electron contribution =     -98.26443198 Ry
     hartree contribution      =      46.63526367 Ry
     xc contribution           =     -11.73858821 Ry
     ewald contribution        =     -10.00955451 Ry
     one-center paw contrib.   =     -59.99756365 Ry

     total magnetization       =    -0.00 Bohr mag/cell
     absolute magnetization    =     0.00 Bohr mag/cell

     convergence has been achieved in   6 iterations

     negative rho (up, down):  1.652E-03 1.651E-03

     Forces acting on atoms (cartesian axes, Ry/au):

     atom    1 type  1   force =     0.00000000    0.00000000    0.00000000

     Total force =     0.000000     Total SCF correction =     0.000000


     Computing stress (Cartesian axis) and pressure


     negative rho (up, down):  1.652E-03 1.651E-03
          total   stress  (Ry/bohr**3)                   (kbar)     P=       -0.20
  -0.00000138   0.00000000   0.00000000           -0.20        0.00        0.00
   0.00000000  -0.00000138   0.00000000            0.00       -0.20        0.00
   0.00000000   0.00000000  -0.00000138            0.00        0.00       -0.20


     Writing all to output data dir /root/qe_scratch/atom_Ca.save/ :
     XML data file, charge density, pseudopotentials, collected wavefunctions
 
     init_run     :      8.55s CPU     11.45s WALL (       1 calls)
     electrons    :     13.58s CPU     15.09s WALL (       1 calls)
     forces       :      0.17s CPU      0.22s WALL (       1 calls)
     stress       :      0.37s CPU      0.41s WALL (       1 calls)

     Called by init_run:
     wfcinit      :      0.12s CPU      0.33s WALL (       1 calls)
     potinit      :      7.38s CPU      9.80s WALL (       1 calls)
     hinit0       :      0.31s CPU      0.41s WALL (       1 calls)

     Called by electrons:
     c_bands      :      3.95s CPU      3.96s WALL (       6 calls)
     sum_band     :      1.07s CPU      1.09s WALL (       6 calls)
     v_of_rho     :      0.76s CPU      1.02s WALL (       7 calls)
     newd         :      0.25s CPU      0.32s WALL (       7 calls)
                                        0.32s GPU  (       7 calls)
     PAW_pot      :      5.92s CPU      6.89s WALL (       7 calls)
     mix_rho      :      0.54s CPU      0.61s WALL (       6 calls)

     Called by c_bands:
     init_us_2    :      0.01s CPU      0.01s WALL (      30 calls)
     cegterg      :      3.87s CPU      3.88s WALL (      12 calls)

     Called by *egterg:
     cdiaghg      :      0.07s CPU      0.09s WALL (      84 calls)
                                        0.09s GPU  (      84 calls)
     h_psi        :      0.24s CPU      0.43s WALL (      86 calls)
                                        0.43s GPU  (      86 calls)
     s_psi        :      0.00s CPU      0.00s WALL (      86 calls)
     g_psi        :      0.00s CPU      0.00s WALL (      72 calls)
                                        0.00s GPU  (      72 calls)

     Called by h_psi:
     h_psi:calbec :      0.07s CPU      0.28s WALL (      86 calls)
                                        0.28s GPU  (      86 calls)
     vloc_psi     :      0.13s CPU      0.13s WALL (      86 calls)
                                        0.13s GPU  (      86 calls)
     add_vuspsi   :      0.00s CPU      0.01s WALL (      86 calls)
                                        0.01s GPU  (      86 calls)

     General routines
     calbec       :      0.07s CPU      0.25s WALL (     108 calls)
     fft          :      5.40s CPU      7.21s WALL (     213 calls)
                                        0.06s GPU  (     199 calls)
     ffts         :      2.29s CPU      2.98s WALL (      26 calls)
                                        0.00s GPU  (      12 calls)
     fftw         :      0.01s CPU      0.11s WALL (     184 calls)
                                        0.11s GPU  (     184 calls)
     interpolate  :      7.86s CPU     10.37s WALL (      14 calls)
 
     Parallel routines
 
     PWSCF        :     23.16s CPU     27.81s WALL

 
   This run was terminated on:   7:52:31   6May2026            

=------------------------------------------------------------------------------=
   JOB DONE.
=------------------------------------------------------------------------------=
Warning: ieee_invalid is signaling
Warning: ieee_divide_by_zero is signaling
Warning: ieee_inexact is signaling
FORTRAN STOP
