--------------------------------------------------------------------------
WARNING: Open MPI tried to bind a process but failed.  This is a
warning only; your job will continue, though performance may
be degraded.

  Local host:        3253031b5b37
  Application name:  /root/qe-7.3.1/bin/pw.x
  Error message:     failed to bind memory
  Location:          ../../../../../orte/mca/rtc/hwloc/rtc_hwloc.c:447

--------------------------------------------------------------------------

     Program PWSCF v.7.3.1 starts on  6May2026 at  8:14:22 

     This program is part of the open-source Quantum ESPRESSO suite
     for quantum simulation of materials; please cite
         "P. Giannozzi et al., J. Phys.:Condens. Matter 21 395502 (2009);
         "P. Giannozzi et al., J. Phys.:Condens. Matter 29 465901 (2017);
         "P. Giannozzi et al., J. Chem. Phys. 152 154105 (2020);
          URL http://www.quantum-espresso.org", 
     in publications or presentations arising from this work. More details at
     http://www.quantum-espresso.org/quote

     Parallel version (MPI & OpenMP), running on       8 processor cores
     Number of MPI processes:                 1
     Threads/MPI process:                     8

     MPI processes distributed on     1 nodes
     89040 MiB available memory on the printing compute node when the environment starts
 
     Reading input from atom_Y.in

     Current dimensions of program PWSCF are:
     Max number of different atomic species (ntypx) = 10
     Max number of k-points (npk) =  40000
     Max angular momentum in pseudopotentials (lmaxx) =  4
     file Y.UPF: wavefunction(s)  4S 4P renormalized
     Message from routine setup:
     using ibrav=0 with symmetry is DISCOURAGED, use correct ibrav instead
 
     Subspace diagonalization in iterative solution of the eigenvalue problem:
     a serial algorithm will be used

 
     G-vector sticks info
     --------------------
     sticks:   dense  smooth     PW     G-vecs:    dense   smooth      PW
     Sum       11513    7685   1917               929121   505887   63077
 
     Using Slab Decomposition
 


     bravais-lattice index     =            0
     lattice parameter (alat)  =      28.3459  a.u.
     unit-cell volume          =   22775.6289 (a.u.)^3
     number of atoms/cell      =            1
     number of atomic types    =            1
     number of electrons       =        11.00
     number of Kohn-Sham states=           10
     kinetic-energy cutoff     =      30.0000  Ry
     charge density cutoff     =     180.0000  Ry
     scf convergence threshold =      1.0E-07
     mixing beta               =       0.4000
     number of iterations used =            8  plain     mixing
     Exchange-correlation= SLA  PW   PBX  PBC
                           (   1   4   3   4   0   0   0)

     GPU acceleration is ACTIVE.  1 visible GPUs per MPI rank


     celldm(1)=  28.345892  celldm(2)=   0.000000  celldm(3)=   0.000000
     celldm(4)=   0.000000  celldm(5)=   0.000000  celldm(6)=   0.000000

     crystal axes: (cart. coord. in units of alat)
               a(1) = (   1.000000   0.000000   0.000000 )  
               a(2) = (   0.000000   1.000000   0.000000 )  
               a(3) = (   0.000000   0.000000   1.000000 )  

     reciprocal axes: (cart. coord. in units 2 pi/alat)
               b(1) = (  1.000000  0.000000  0.000000 )  
               b(2) = (  0.000000  1.000000  0.000000 )  
               b(3) = (  0.000000  0.000000  1.000000 )  


     PseudoPot. # 1 for Y  read from file:
     /root/qe_pseudos/Y.UPF
     MD5 check sum: d52e8d8ffa9ef5a9f13bb13aaba2e897
     Pseudo is Projector augmented-wave + core cor, Zval = 11.0
     Generated using &quot;atomic&quot; code by A. Dal Corso  v.6.2.2
     Shape of augmentation charge: PSQ
     Using radial grid of 1223 points,  6 beta functions with: 
                l(1) =   0
                l(2) =   0
                l(3) =   1
                l(4) =   1
                l(5) =   2
                l(6) =   2
     Q(r) pseudized with 0 coefficients 


     atomic species   valence    mass     pseudopotential
     Y                11.00    88.90580     Y ( 1.00)

     Starting magnetic structure 
     atomic species   magnetization
     Y               0.500

     48 Sym. Ops., with inversion, found



   Cartesian axes

     site n.     atom                  positions (alat units)
         1        Y      tau(   1) = (   0.5000000   0.5000000   0.5000000  )

     number of k points=     1  Methfessel-Paxton smearing, width (Ry)=  0.0100
                       cart. coord. in units 2pi/alat
        k(    1) = (   0.0000000   0.0000000   0.0000000), wk =   1.0000000

     Dense  grid:   929121 G-vectors     FFT dimensions: ( 125, 125, 125)

     Smooth grid:   505887 G-vectors     FFT dimensions: ( 100, 100, 100)

     Estimated max dynamical RAM per process >       3.70 GB
     Generating pointlists ...
     new r_m :   0.4125 (alat units) 11.6927 (a.u.) for type    1

     Initial potential from superposition of free atoms

     starting charge      10.9959, renormalised to      11.0000

     negative rho (up, down):  9.697E-03 3.232E-03
     Starting wfcs are   13 randomized atomic wfcs
     Checking if some PAW data can be deallocated... 

     total cpu time spent up to now is       12.1 secs

     Self-consistent Calculation

     iteration #  1     ecut=    30.00 Ry     beta= 0.40
     Davidson diagonalization with overlap
     ethr =  1.00E-02,  avg # of iterations =  1.0

     negative rho (up, down):  8.112E-03 4.308E-03

     total cpu time spent up to now is       14.2 secs

     total energy              =    -282.11601651 Ry
     estimated scf accuracy    <       0.18546495 Ry

     total magnetization       =     3.07 Bohr mag/cell
     absolute magnetization    =     3.07 Bohr mag/cell

     iteration #  2     ecut=    30.00 Ry     beta= 0.40
     Davidson diagonalization with overlap
     ethr =  1.69E-03,  avg # of iterations =  1.0

     negative rho (up, down):  7.099E-03 4.617E-03

     total cpu time spent up to now is       16.1 secs

     total energy              =    -282.21541773 Ry
     estimated scf accuracy    <       0.08598822 Ry

     total magnetization       =     1.00 Bohr mag/cell
     absolute magnetization    =     1.01 Bohr mag/cell

     iteration #  3     ecut=    30.00 Ry     beta= 0.40
     Davidson diagonalization with overlap
     ethr =  7.82E-04,  avg # of iterations =  1.0

     negative rho (up, down):  6.733E-03 4.872E-03

     total cpu time spent up to now is       18.1 secs

     total energy              =    -282.27097563 Ry
     estimated scf accuracy    <       0.03752804 Ry

     total magnetization       =     1.00 Bohr mag/cell
     absolute magnetization    =     1.01 Bohr mag/cell

     iteration #  4     ecut=    30.00 Ry     beta= 0.40
     Davidson diagonalization with overlap
     ethr =  3.41E-04,  avg # of iterations =  1.5

     negative rho (up, down):  6.123E-03 4.846E-03

     total cpu time spent up to now is       20.0 secs

     total energy              =    -282.27389606 Ry
     estimated scf accuracy    <       0.00236710 Ry

     total magnetization       =     1.00 Bohr mag/cell
     absolute magnetization    =     1.00 Bohr mag/cell

     iteration #  5     ecut=    30.00 Ry     beta= 0.40
     Davidson diagonalization with overlap
     ethr =  2.15E-05,  avg # of iterations =  2.0

     negative rho (up, down):  5.801E-03 4.944E-03

     total cpu time spent up to now is       22.1 secs

     total energy              =    -282.27382905 Ry
     estimated scf accuracy    <       0.00047937 Ry

     total magnetization       =     1.00 Bohr mag/cell
     absolute magnetization    =     1.00 Bohr mag/cell

     iteration #  6     ecut=    30.00 Ry     beta= 0.40
     Davidson diagonalization with overlap
     ethr =  4.36E-06,  avg # of iterations =  2.5

     negative rho (up, down):  5.616E-03 5.024E-03

     total cpu time spent up to now is       24.1 secs

     total energy              =    -282.27392806 Ry
     estimated scf accuracy    <       0.00001024 Ry

     total magnetization       =     1.00 Bohr mag/cell
     absolute magnetization    =     1.00 Bohr mag/cell

     iteration #  7     ecut=    30.00 Ry     beta= 0.40
     Davidson diagonalization with overlap
     ethr =  9.31E-08,  avg # of iterations =  3.0

     negative rho (up, down):  5.540E-03 5.063E-03

     total cpu time spent up to now is       26.2 secs

     total energy              =    -282.27392705 Ry
     estimated scf accuracy    <       0.00000771 Ry

     total magnetization       =     1.00 Bohr mag/cell
     absolute magnetization    =     1.00 Bohr mag/cell

     iteration #  8     ecut=    30.00 Ry     beta= 0.40
     Davidson diagonalization with overlap
     ethr =  7.01E-08,  avg # of iterations =  1.0

     negative rho (up, down):  5.457E-03 5.115E-03

     total cpu time spent up to now is       28.2 secs

     total energy              =    -282.27392425 Ry
     estimated scf accuracy    <       0.00000782 Ry

     total magnetization       =     1.00 Bohr mag/cell
     absolute magnetization    =     1.00 Bohr mag/cell

     iteration #  9     ecut=    30.00 Ry     beta= 0.40
     Davidson diagonalization with overlap
     ethr =  7.01E-08,  avg # of iterations =  3.0

     negative rho (up, down):  5.407E-03 5.110E-03

     total cpu time spent up to now is       30.4 secs

     total energy              =    -282.27392534 Ry
     estimated scf accuracy    <       0.00000562 Ry

     total magnetization       =     1.00 Bohr mag/cell
     absolute magnetization    =     1.00 Bohr mag/cell

     iteration # 10     ecut=    30.00 Ry     beta= 0.40
     Davidson diagonalization with overlap
     ethr =  5.11E-08,  avg # of iterations =  2.0

     negative rho (up, down):  5.386E-03 5.125E-03

     total cpu time spent up to now is       32.6 secs

     total energy              =    -282.27392595 Ry
     estimated scf accuracy    <       0.00000018 Ry

     total magnetization       =     1.00 Bohr mag/cell
     absolute magnetization    =     1.00 Bohr mag/cell

     iteration # 11     ecut=    30.00 Ry     beta= 0.40
     Davidson diagonalization with overlap
     ethr =  1.61E-09,  avg # of iterations =  4.0

     negative rho (up, down):  5.365E-03 5.145E-03
 
     Magnetic moment per site  (integrated on atomic sphere of radius R)
     atom   1 (R=0.413)  charge= 10.9996  magn=  1.0000

     total cpu time spent up to now is       34.8 secs

     End of self-consistent calculation

 ------ SPIN UP ------------


          k = 0.0000 0.0000 0.0000 ( 63077 PWs)   bands (ev):

   -47.9766 -27.9398 -27.9398 -27.9398  -4.0999  -2.5795  -2.5795  -2.5795
    -2.5795  -2.5795

 ------ SPIN DOWN ----------


          k = 0.0000 0.0000 0.0000 ( 63077 PWs)   bands (ev):

   -47.5852 -27.4620 -27.4620 -27.4620  -3.7416  -2.0536  -2.0536  -2.0531
    -2.0531  -2.0531

     the Fermi energy is    -2.6318 ev

!    total energy              =    -282.27392609 Ry
     total all-electron energy =     -6770.397200 Ry
     estimated scf accuracy    <       0.00000006 Ry
     smearing contrib. (-TS)   =      -0.00428943 Ry
     internal energy E=F+TS    =    -282.26963666 Ry

     The total energy is F=E-TS. E is the sum of the following terms:
     one-electron contribution =     -98.90276751 Ry
     hartree contribution      =      47.16582656 Ry
     xc contribution           =     -17.46321258 Ry
     ewald contribution        =     -12.11156096 Ry
     one-center paw contrib.   =    -200.95792217 Ry

     total magnetization       =     1.00 Bohr mag/cell
     absolute magnetization    =     1.00 Bohr mag/cell

     convergence has been achieved in  11 iterations

     negative rho (up, down):  5.365E-03 5.145E-03

     Forces acting on atoms (cartesian axes, Ry/au):

     atom    1 type  1   force =     0.00000000    0.00000000    0.00000000

     Total force =     0.000000     Total SCF correction =     0.000000


     Computing stress (Cartesian axis) and pressure


     negative rho (up, down):  5.365E-03 5.145E-03
          total   stress  (Ry/bohr**3)                   (kbar)     P=       -0.19
  -0.00000130   0.00000000   0.00000000           -0.19        0.00        0.00
   0.00000000  -0.00000130   0.00000000            0.00       -0.19        0.00
   0.00000000   0.00000000  -0.00000130            0.00        0.00       -0.19


     Writing all to output data dir /root/qe_scratch/atom_Y.save/ :
     XML data file, charge density, pseudopotentials, collected wavefunctions
 
     init_run     :      8.73s CPU     11.71s WALL (       1 calls)
     electrons    :     19.73s CPU     22.77s WALL (       1 calls)
     forces       :      0.18s CPU      0.22s WALL (       1 calls)
     stress       :      0.39s CPU      0.41s WALL (       1 calls)

     Called by init_run:
     wfcinit      :      0.15s CPU      0.33s WALL (       1 calls)
     potinit      :      7.57s CPU     10.06s WALL (       1 calls)
     hinit0       :      0.31s CPU      0.43s WALL (       1 calls)

     Called by electrons:
     c_bands      :      1.16s CPU      1.16s WALL (      11 calls)
     sum_band     :      1.94s CPU      2.00s WALL (      11 calls)
     v_of_rho     :      1.27s CPU      1.69s WALL (      12 calls)
     newd         :      0.37s CPU      0.45s WALL (      12 calls)
                                        0.45s GPU  (      12 calls)
     PAW_pot      :     10.84s CPU     12.77s WALL (      12 calls)
     mix_rho      :      1.45s CPU      1.62s WALL (      11 calls)

     Called by c_bands:
     init_us_2    :      0.01s CPU      0.02s WALL (      50 calls)
     cegterg      :      0.99s CPU      0.99s WALL (      22 calls)

     Called by *egterg:
     cdiaghg      :      0.06s CPU      0.08s WALL (      66 calls)
                                        0.08s GPU  (      66 calls)
     h_psi        :      0.33s CPU      0.48s WALL (      68 calls)
                                        0.48s GPU  (      68 calls)
     s_psi        :      0.00s CPU      0.00s WALL (      68 calls)
     g_psi        :      0.00s CPU      0.00s WALL (      44 calls)
                                        0.00s GPU  (      44 calls)

     Called by h_psi:
     h_psi:calbec :      0.10s CPU      0.28s WALL (      68 calls)
                                        0.28s GPU  (      68 calls)
     vloc_psi     :      0.17s CPU      0.17s WALL (      68 calls)
                                        0.17s GPU  (      68 calls)
     add_vuspsi   :      0.00s CPU      0.02s WALL (      68 calls)
                                        0.02s GPU  (      68 calls)

     General routines
     calbec       :      0.10s CPU      0.25s WALL (     100 calls)
     fft          :      6.09s CPU      8.15s WALL (     338 calls)
                                        0.09s GPU  (     314 calls)
     ffts         :      2.83s CPU      3.61s WALL (      46 calls)
                                        0.00s GPU  (      22 calls)
     fftw         :      0.01s CPU      0.16s WALL (     158 calls)
                                        0.16s GPU  (     158 calls)
     interpolate  :      9.18s CPU     12.00s WALL (      24 calls)
 
     Parallel routines
 
     PWSCF        :     29.55s CPU     35.85s WALL

 
   This run was terminated on:   8:14:58   6May2026            

=------------------------------------------------------------------------------=
   JOB DONE.
=------------------------------------------------------------------------------=
Warning: ieee_invalid is signaling
Warning: ieee_divide_by_zero is signaling
Warning: ieee_inexact is signaling
FORTRAN STOP
