--------------------------------------------------------------------------
WARNING: Open MPI tried to bind a process but failed.  This is a
warning only; your job will continue, though performance may
be degraded.

  Local host:        3253031b5b37
  Application name:  /root/qe-7.3.1/bin/pw.x
  Error message:     failed to bind memory
  Location:          ../../../../../orte/mca/rtc/hwloc/rtc_hwloc.c:447

--------------------------------------------------------------------------

     Program PWSCF v.7.3.1 starts on  6May2026 at  7:57:36 

     This program is part of the open-source Quantum ESPRESSO suite
     for quantum simulation of materials; please cite
         "P. Giannozzi et al., J. Phys.:Condens. Matter 21 395502 (2009);
         "P. Giannozzi et al., J. Phys.:Condens. Matter 29 465901 (2017);
         "P. Giannozzi et al., J. Chem. Phys. 152 154105 (2020);
          URL http://www.quantum-espresso.org", 
     in publications or presentations arising from this work. More details at
     http://www.quantum-espresso.org/quote

     Parallel version (MPI & OpenMP), running on       8 processor cores
     Number of MPI processes:                 1
     Threads/MPI process:                     8

     MPI processes distributed on     1 nodes
     90493 MiB available memory on the printing compute node when the environment starts
 
     Reading input from atom_I.in

     Current dimensions of program PWSCF are:
     Max number of different atomic species (ntypx) = 10
     Max number of k-points (npk) =  40000
     Max angular momentum in pseudopotentials (lmaxx) =  4
     file I.UPF: wavefunction(s)  5S renormalized
     Message from routine setup:
     using ibrav=0 with symmetry is DISCOURAGED, use correct ibrav instead
 
     Subspace diagonalization in iterative solution of the eigenvalue problem:
     a serial algorithm will be used

 
     G-vector sticks info
     --------------------
     sticks:   dense  smooth     PW     G-vecs:    dense   smooth      PW
     Sum       11513    7685   1917               929121   505887   63077
 
     Using Slab Decomposition
 


     bravais-lattice index     =            0
     lattice parameter (alat)  =      28.3459  a.u.
     unit-cell volume          =   22775.6289 (a.u.)^3
     number of atoms/cell      =            1
     number of atomic types    =            1
     number of electrons       =         7.00
     number of Kohn-Sham states=            8
     kinetic-energy cutoff     =      30.0000  Ry
     charge density cutoff     =     180.0000  Ry
     scf convergence threshold =      1.0E-07
     mixing beta               =       0.4000
     number of iterations used =            8  plain     mixing
     Exchange-correlation= SLA  PW   PBX  PBC
                           (   1   4   3   4   0   0   0)

     GPU acceleration is ACTIVE.  1 visible GPUs per MPI rank


     celldm(1)=  28.345892  celldm(2)=   0.000000  celldm(3)=   0.000000
     celldm(4)=   0.000000  celldm(5)=   0.000000  celldm(6)=   0.000000

     crystal axes: (cart. coord. in units of alat)
               a(1) = (   1.000000   0.000000   0.000000 )  
               a(2) = (   0.000000   1.000000   0.000000 )  
               a(3) = (   0.000000   0.000000   1.000000 )  

     reciprocal axes: (cart. coord. in units 2 pi/alat)
               b(1) = (  1.000000  0.000000  0.000000 )  
               b(2) = (  0.000000  1.000000  0.000000 )  
               b(3) = (  0.000000  0.000000  1.000000 )  


     PseudoPot. # 1 for I  read from file:
     /root/qe_pseudos/I.UPF
     MD5 check sum: cd3d296c3308a581e1559a0c8a554cb5
     Pseudo is Projector augmented-wave + core cor, Zval =  7.0
     Generated using &quot;atomic&quot; code by A. Dal Corso  v.6.3
     Shape of augmentation charge: PSQ
     Using radial grid of 1247 points,  6 beta functions with: 
                l(1) =   0
                l(2) =   0
                l(3) =   1
                l(4) =   1
                l(5) =   2
                l(6) =   2
     Q(r) pseudized with 0 coefficients 


     atomic species   valence    mass     pseudopotential
     I                 7.00   126.90450     I ( 1.00)

     Starting magnetic structure 
     atomic species   magnetization
     I               0.500

     48 Sym. Ops., with inversion, found



   Cartesian axes

     site n.     atom                  positions (alat units)
         1        I      tau(   1) = (   0.5000000   0.5000000   0.5000000  )

     number of k points=     1  Methfessel-Paxton smearing, width (Ry)=  0.0100
                       cart. coord. in units 2pi/alat
        k(    1) = (   0.0000000   0.0000000   0.0000000), wk =   1.0000000

     Dense  grid:   929121 G-vectors     FFT dimensions: ( 125, 125, 125)

     Smooth grid:   505887 G-vectors     FFT dimensions: ( 100, 100, 100)

     Estimated max dynamical RAM per process >       3.70 GB
     Generating pointlists ...
     new r_m :   0.4125 (alat units) 11.6927 (a.u.) for type    1

     Initial potential from superposition of free atoms

     starting charge       6.9999, renormalised to       7.0000

     negative rho (up, down):  8.551E-04 2.850E-04
     Starting wfcs are    4 randomized atomic wfcs +    4 random wfcs
     Checking if some PAW data can be deallocated... 

     total cpu time spent up to now is       11.9 secs

     Self-consistent Calculation

     iteration #  1     ecut=    30.00 Ry     beta= 0.40
     Davidson diagonalization with overlap
     ethr =  1.00E-02,  avg # of iterations =  6.0

     Threshold (ethr) on eigenvalues was too large:
     Diagonalizing with lowered threshold

     Davidson diagonalization with overlap
     ethr =  2.47E-04,  avg # of iterations =  7.5

     negative rho (up, down):  7.245E-04 4.037E-04

     total cpu time spent up to now is       14.7 secs

     total energy              =    -378.79096663 Ry
     estimated scf accuracy    <       0.01717380 Ry

     total magnetization       =     1.00 Bohr mag/cell
     absolute magnetization    =     1.01 Bohr mag/cell

     iteration #  2     ecut=    30.00 Ry     beta= 0.40
     Davidson diagonalization with overlap
     ethr =  2.45E-04,  avg # of iterations =  1.0

     negative rho (up, down):  7.676E-04 5.642E-04

     total cpu time spent up to now is       16.6 secs

     total energy              =    -378.81638717 Ry
     estimated scf accuracy    <       0.00632175 Ry

     total magnetization       =     1.00 Bohr mag/cell
     absolute magnetization    =     1.00 Bohr mag/cell

     iteration #  3     ecut=    30.00 Ry     beta= 0.40
     Davidson diagonalization with overlap
     ethr =  9.03E-05,  avg # of iterations =  2.0

     negative rho (up, down):  6.434E-04 5.504E-04

     total cpu time spent up to now is       18.6 secs

     total energy              =    -378.81712001 Ry
     estimated scf accuracy    <       0.00002134 Ry

     total magnetization       =     1.00 Bohr mag/cell
     absolute magnetization    =     1.00 Bohr mag/cell

     iteration #  4     ecut=    30.00 Ry     beta= 0.40
     Davidson diagonalization with overlap
     c_bands:  1 eigenvalues not converged
     c_bands:  3 eigenvalues not converged
     ethr =  3.05E-07,  avg # of iterations = 20.0

     negative rho (up, down):  5.831E-04 5.632E-04

     total cpu time spent up to now is       20.8 secs

     total energy              =    -378.81716183 Ry
     estimated scf accuracy    <       0.00000127 Ry

     total magnetization       =     1.00 Bohr mag/cell
     absolute magnetization    =     1.00 Bohr mag/cell

     iteration #  5     ecut=    30.00 Ry     beta= 0.40
     Davidson diagonalization with overlap
     ethr =  1.81E-08,  avg # of iterations = 10.0

     negative rho (up, down):  5.508E-04 5.800E-04

     total cpu time spent up to now is       23.9 secs

     total energy              =    -378.81716755 Ry
     estimated scf accuracy    <       0.00000041 Ry

     total magnetization       =     1.00 Bohr mag/cell
     absolute magnetization    =     1.00 Bohr mag/cell

     iteration #  6     ecut=    30.00 Ry     beta= 0.40
     Davidson diagonalization with overlap
     ethr =  5.81E-09,  avg # of iterations =  3.0

     negative rho (up, down):  5.193E-04 6.049E-04
 
     Magnetic moment per site  (integrated on atomic sphere of radius R)
     atom   1 (R=0.413)  charge=  7.0000  magn=  1.0000

     total cpu time spent up to now is       25.7 secs

     End of self-consistent calculation

 ------ SPIN UP ------------


          k = 0.0000 0.0000 0.0000 ( 63077 PWs)   bands (ev):

   -17.5756  -7.2603  -7.2603  -7.2603  -0.5358   0.1492   0.3880   0.3882

 ------ SPIN DOWN ----------


          k = 0.0000 0.0000 0.0000 ( 63077 PWs)   bands (ev):

   -16.9658  -6.6404  -6.6404  -6.6404  -0.4521   0.1841   0.4147   0.4150

     the Fermi energy is    -6.6130 ev

!    total energy              =    -378.81716842 Ry
     total all-electron energy =    -14232.814612 Ry
     estimated scf accuracy    <       0.00000001 Ry
     smearing contrib. (-TS)   =      -0.00373359 Ry
     internal energy E=F+TS    =    -378.81343483 Ry

     The total energy is F=E-TS. E is the sum of the following terms:
     one-electron contribution =     -26.07536434 Ry
     hartree contribution      =      14.23233967 Ry
     xc contribution           =     -15.59271836 Ry
     ewald contribution        =      -4.90468176 Ry
     one-center paw contrib.   =    -346.47301005 Ry

     total magnetization       =     1.00 Bohr mag/cell
     absolute magnetization    =     1.00 Bohr mag/cell

     convergence has been achieved in   6 iterations

     negative rho (up, down):  5.193E-04 6.049E-04

     Forces acting on atoms (cartesian axes, Ry/au):

     atom    1 type  1   force =     0.00000000    0.00000000    0.00000000

     Total force =     0.000000     Total SCF correction =     0.000000


     Computing stress (Cartesian axis) and pressure


     negative rho (up, down):  5.193E-04 6.049E-04
          total   stress  (Ry/bohr**3)                   (kbar)     P=        0.00
   0.00000000   0.00000000   0.00000000            0.00        0.00        0.00
   0.00000000   0.00000000   0.00000000            0.00        0.00        0.00
   0.00000000   0.00000000   0.00000000            0.00        0.00        0.00


     Writing all to output data dir /root/qe_scratch/atom_I.save/ :
     XML data file, charge density, pseudopotentials, collected wavefunctions
 
     init_run     :      8.55s CPU     11.54s WALL (       1 calls)
     electrons    :     12.26s CPU     13.88s WALL (       1 calls)
     forces       :      0.17s CPU      0.22s WALL (       1 calls)
     stress       :      0.38s CPU      0.40s WALL (       1 calls)

     Called by init_run:
     wfcinit      :      0.12s CPU      0.32s WALL (       1 calls)
     potinit      :      7.37s CPU      9.89s WALL (       1 calls)
     hinit0       :      0.32s CPU      0.42s WALL (       1 calls)

     Called by electrons:
     c_bands      :      2.48s CPU      2.50s WALL (       7 calls)
     sum_band     :      1.24s CPU      1.29s WALL (       7 calls)
     v_of_rho     :      0.69s CPU      0.97s WALL (       7 calls)
     newd         :      0.28s CPU      0.32s WALL (       7 calls)
                                        0.32s GPU  (       7 calls)
     PAW_pot      :      5.91s CPU      6.95s WALL (       7 calls)
     mix_rho      :      0.53s CPU      0.63s WALL (       7 calls)

     Called by c_bands:
     init_us_2    :      0.01s CPU      0.01s WALL (      34 calls)
     cegterg      :      2.40s CPU      2.41s WALL (      14 calls)

     Called by *egterg:
     cdiaghg      :      0.08s CPU      0.10s WALL (     111 calls)
                                        0.10s GPU  (     111 calls)
     h_psi        :      0.31s CPU      0.49s WALL (     115 calls)
                                        0.49s GPU  (     115 calls)
     s_psi        :      0.01s CPU      0.01s WALL (     115 calls)
     g_psi        :      0.00s CPU      0.00s WALL (      99 calls)
                                        0.00s GPU  (      99 calls)

     Called by h_psi:
     h_psi:calbec :      0.08s CPU      0.30s WALL (     115 calls)
                                        0.30s GPU  (     115 calls)
     vloc_psi     :      0.15s CPU      0.16s WALL (     115 calls)
                                        0.16s GPU  (     115 calls)
     add_vuspsi   :      0.01s CPU      0.02s WALL (     115 calls)
                                        0.02s GPU  (     115 calls)

     General routines
     calbec       :      0.08s CPU      0.25s WALL (     139 calls)
     fft          :      5.38s CPU      7.28s WALL (     215 calls)
                                        0.06s GPU  (     201 calls)
     ffts         :      2.32s CPU      2.98s WALL (      28 calls)
                                        0.00s GPU  (      14 calls)
     fftw         :      0.01s CPU      0.13s WALL (     244 calls)
                                        0.13s GPU  (     244 calls)
     interpolate  :      7.87s CPU     10.44s WALL (      14 calls)
 
     Parallel routines
 
     PWSCF        :     21.92s CPU     26.76s WALL

 
   This run was terminated on:   7:58: 2   6May2026            

=------------------------------------------------------------------------------=
   JOB DONE.
=------------------------------------------------------------------------------=
Warning: ieee_invalid is signaling
Warning: ieee_divide_by_zero is signaling
Warning: ieee_inexact is signaling
FORTRAN STOP
