--------------------------------------------------------------------------
WARNING: Open MPI tried to bind a process but failed.  This is a
warning only; your job will continue, though performance may
be degraded.

  Local host:        3253031b5b37
  Application name:  /root/qe-7.3.1/bin/pw.x
  Error message:     failed to bind memory
  Location:          ../../../../../orte/mca/rtc/hwloc/rtc_hwloc.c:447

--------------------------------------------------------------------------

     Program PWSCF v.7.3.1 starts on  6May2026 at  8: 8:46 

     This program is part of the open-source Quantum ESPRESSO suite
     for quantum simulation of materials; please cite
         "P. Giannozzi et al., J. Phys.:Condens. Matter 21 395502 (2009);
         "P. Giannozzi et al., J. Phys.:Condens. Matter 29 465901 (2017);
         "P. Giannozzi et al., J. Chem. Phys. 152 154105 (2020);
          URL http://www.quantum-espresso.org", 
     in publications or presentations arising from this work. More details at
     http://www.quantum-espresso.org/quote

     Parallel version (MPI & OpenMP), running on       8 processor cores
     Number of MPI processes:                 1
     Threads/MPI process:                     8

     MPI processes distributed on     1 nodes
     89562 MiB available memory on the printing compute node when the environment starts
 
     Reading input from atom_Sn.in

     Current dimensions of program PWSCF are:
     Max number of different atomic species (ntypx) = 10
     Max number of k-points (npk) =  40000
     Max angular momentum in pseudopotentials (lmaxx) =  4
     file Sn.UPF: wavefunction(s)  5S 4D renormalized
     Message from routine setup:
     using ibrav=0 with symmetry is DISCOURAGED, use correct ibrav instead
 
     Subspace diagonalization in iterative solution of the eigenvalue problem:
     a serial algorithm will be used

 
     G-vector sticks info
     --------------------
     sticks:   dense  smooth     PW     G-vecs:    dense   smooth      PW
     Sum       11513    7685   1917               929121   505887   63077
 
     Using Slab Decomposition
 


     bravais-lattice index     =            0
     lattice parameter (alat)  =      28.3459  a.u.
     unit-cell volume          =   22775.6289 (a.u.)^3
     number of atoms/cell      =            1
     number of atomic types    =            1
     number of electrons       =        14.00
     number of Kohn-Sham states=           11
     kinetic-energy cutoff     =      30.0000  Ry
     charge density cutoff     =     180.0000  Ry
     scf convergence threshold =      1.0E-07
     mixing beta               =       0.4000
     number of iterations used =            8  plain     mixing
     Exchange-correlation= PBE
                           (   1   4   3   4   0   0   0)

     GPU acceleration is ACTIVE.  1 visible GPUs per MPI rank


     celldm(1)=  28.345892  celldm(2)=   0.000000  celldm(3)=   0.000000
     celldm(4)=   0.000000  celldm(5)=   0.000000  celldm(6)=   0.000000

     crystal axes: (cart. coord. in units of alat)
               a(1) = (   1.000000   0.000000   0.000000 )  
               a(2) = (   0.000000   1.000000   0.000000 )  
               a(3) = (   0.000000   0.000000   1.000000 )  

     reciprocal axes: (cart. coord. in units 2 pi/alat)
               b(1) = (  1.000000  0.000000  0.000000 )  
               b(2) = (  0.000000  1.000000  0.000000 )  
               b(3) = (  0.000000  0.000000  1.000000 )  


     PseudoPot. # 1 for Sn read from file:
     /root/qe_pseudos/Sn.UPF
     MD5 check sum: 72e22d5a9e1ec4fde6a02e1f963898e9
     Pseudo is Ultrasoft + core correction, Zval = 14.0
     Generated using &quot;atomic&quot; code by A. Dal Corso  v.6.3
     Using radial grid of 1243 points,  6 beta functions with: 
                l(1) =   0
                l(2) =   0
                l(3) =   1
                l(4) =   1
                l(5) =   2
                l(6) =   2
     Q(r) pseudized with 0 coefficients 


     atomic species   valence    mass     pseudopotential
     Sn               14.00   118.71000     Sn( 1.00)

     Starting magnetic structure 
     atomic species   magnetization
     Sn              0.500

     48 Sym. Ops., with inversion, found



   Cartesian axes

     site n.     atom                  positions (alat units)
         1        Sn     tau(   1) = (   0.5000000   0.5000000   0.5000000  )

     number of k points=     1  Methfessel-Paxton smearing, width (Ry)=  0.0100
                       cart. coord. in units 2pi/alat
        k(    1) = (   0.0000000   0.0000000   0.0000000), wk =   1.0000000

     Dense  grid:   929121 G-vectors     FFT dimensions: ( 125, 125, 125)

     Smooth grid:   505887 G-vectors     FFT dimensions: ( 100, 100, 100)

     Estimated max dynamical RAM per process >       3.71 GB
     Generating pointlists ...
     new r_m :   0.4125 (alat units) 11.6927 (a.u.) for type    1

     Initial potential from superposition of free atoms

     starting charge      13.9986, renormalised to      14.0000

     negative rho (up, down):  2.132E-02 7.107E-03
     Starting wfcs are    9 randomized atomic wfcs +    2 random wfcs

     total cpu time spent up to now is       10.7 secs

     Self-consistent Calculation

     iteration #  1     ecut=    30.00 Ry     beta= 0.40
     Davidson diagonalization with overlap
     ethr =  1.00E-02,  avg # of iterations =  5.5

     negative rho (up, down):  1.822E-02 1.050E-02

     total cpu time spent up to now is       11.8 secs

     total energy              =    -161.98972194 Ry
     estimated scf accuracy    <       0.60911463 Ry

     total magnetization       =     2.00 Bohr mag/cell
     absolute magnetization    =     2.00 Bohr mag/cell

     iteration #  2     ecut=    30.00 Ry     beta= 0.40
     Davidson diagonalization with overlap
     ethr =  4.35E-03,  avg # of iterations =  1.0

     negative rho (up, down):  1.845E-02 1.627E-02

     total cpu time spent up to now is       12.7 secs

     total energy              =    -162.13321401 Ry
     estimated scf accuracy    <       0.21487004 Ry

     total magnetization       =     2.00 Bohr mag/cell
     absolute magnetization    =     2.00 Bohr mag/cell

     iteration #  3     ecut=    30.00 Ry     beta= 0.40
     Davidson diagonalization with overlap
     ethr =  1.53E-03,  avg # of iterations =  1.0

     negative rho (up, down):  1.625E-02 1.657E-02

     total cpu time spent up to now is       13.7 secs

     total energy              =    -162.13764980 Ry
     estimated scf accuracy    <       0.00184860 Ry

     total magnetization       =     2.00 Bohr mag/cell
     absolute magnetization    =     2.00 Bohr mag/cell

     iteration #  4     ecut=    30.00 Ry     beta= 0.40
     Davidson diagonalization with overlap
     c_bands:  1 eigenvalues not converged
     ethr =  1.32E-05,  avg # of iterations = 15.5

     negative rho (up, down):  1.483E-02 1.676E-02

     total cpu time spent up to now is       16.1 secs

     total energy              =    -162.13810737 Ry
     estimated scf accuracy    <       0.00010687 Ry

     total magnetization       =     2.00 Bohr mag/cell
     absolute magnetization    =     2.00 Bohr mag/cell

     iteration #  5     ecut=    30.00 Ry     beta= 0.40
     Davidson diagonalization with overlap
     ethr =  7.63E-07,  avg # of iterations = 12.0

     negative rho (up, down):  1.422E-02 1.707E-02

     total cpu time spent up to now is       19.0 secs

     total energy              =    -162.13816100 Ry
     estimated scf accuracy    <       0.00002454 Ry

     total magnetization       =     2.00 Bohr mag/cell
     absolute magnetization    =     2.00 Bohr mag/cell

     iteration #  6     ecut=    30.00 Ry     beta= 0.40
     Davidson diagonalization with overlap
     ethr =  1.75E-07,  avg # of iterations =  2.0

     negative rho (up, down):  1.389E-02 1.732E-02

     total cpu time spent up to now is       20.0 secs

     total energy              =    -162.13817780 Ry
     estimated scf accuracy    <       0.00000038 Ry

     total magnetization       =     2.00 Bohr mag/cell
     absolute magnetization    =     2.00 Bohr mag/cell

     iteration #  7     ecut=    30.00 Ry     beta= 0.40
     Davidson diagonalization with overlap
     ethr =  2.68E-09,  avg # of iterations =  3.0

     negative rho (up, down):  1.372E-02 1.749E-02

     total cpu time spent up to now is       21.1 secs

     total energy              =    -162.13818035 Ry
     estimated scf accuracy    <       0.00000010 Ry

     total magnetization       =     2.00 Bohr mag/cell
     absolute magnetization    =     2.00 Bohr mag/cell

     iteration #  8     ecut=    30.00 Ry     beta= 0.40
     Davidson diagonalization with overlap
     ethr =  7.47E-10,  avg # of iterations =  4.0

     negative rho (up, down):  1.350E-02 1.776E-02
 
     Magnetic moment per site  (integrated on atomic sphere of radius R)
     atom   1 (R=0.413)  charge= 13.9988  magn=  1.9999

     total cpu time spent up to now is       22.2 secs

     End of self-consistent calculation

 ------ SPIN UP ------------


          k = 0.0000 0.0000 0.0000 ( 63077 PWs)   bands (ev):

   -25.3562 -25.3562 -25.3445 -25.3445 -25.3445 -10.9043  -4.0865  -4.0865
    -4.0865  -0.7675  -0.1112

 ------ SPIN DOWN ----------


          k = 0.0000 0.0000 0.0000 ( 63077 PWs)   bands (ev):

   -25.1964 -25.1964 -25.1847 -25.1847 -25.1847  -9.7330  -2.8154  -2.8154
    -2.8154  -0.5940   0.0879

     the Fermi energy is    -4.0591 ev

!    total energy              =    -162.13818151 Ry
     estimated scf accuracy    <       0.00000003 Ry
     smearing contrib. (-TS)   =      -0.00373359 Ry
     internal energy E=F+TS    =    -162.13444792 Ry

     The total energy is F=E-TS. E is the sum of the following terms:
     one-electron contribution =    -195.02929181 Ry
     hartree contribution      =     100.23935426 Ry
     xc contribution           =     -47.72578361 Ry
     ewald contribution        =     -19.61872676 Ry

     total magnetization       =     2.00 Bohr mag/cell
     absolute magnetization    =     2.00 Bohr mag/cell

     convergence has been achieved in   8 iterations

     negative rho (up, down):  1.350E-02 1.776E-02

     Forces acting on atoms (cartesian axes, Ry/au):

     atom    1 type  1   force =     0.00000000    0.00000000    0.00000000

     Total force =     0.000000     Total SCF correction =     0.000000


     Computing stress (Cartesian axis) and pressure


     negative rho (up, down):  1.350E-02 1.776E-02
          total   stress  (Ry/bohr**3)                   (kbar)     P=      -24.90
  -0.00016929   0.00000000   0.00000000          -24.90        0.00        0.00
   0.00000000  -0.00016929   0.00000000            0.00      -24.90        0.00
   0.00000000   0.00000000  -0.00016929            0.00        0.00      -24.90


     Writing all to output data dir /root/qe_scratch/atom_Sn.save/ :
     XML data file, charge density, pseudopotentials, collected wavefunctions
 
     init_run     :      7.61s CPU     10.42s WALL (       1 calls)
     electrons    :     10.54s CPU     11.49s WALL (       1 calls)
     forces       :      0.19s CPU      0.22s WALL (       1 calls)
     stress       :      0.39s CPU      0.41s WALL (       1 calls)

     Called by init_run:
     wfcinit      :      0.14s CPU      0.33s WALL (       1 calls)
     potinit      :      6.40s CPU      8.76s WALL (       1 calls)
     hinit0       :      0.34s CPU      0.42s WALL (       1 calls)

     Called by electrons:
     c_bands      :      4.30s CPU      4.33s WALL (       8 calls)
     sum_band     :      1.43s CPU      1.47s WALL (       8 calls)
     v_of_rho     :      0.93s CPU      1.26s WALL (       9 calls)
     newd         :      0.31s CPU      0.38s WALL (       9 calls)
                                        0.38s GPU  (       9 calls)
     mix_rho      :      0.85s CPU      0.98s WALL (       8 calls)

     Called by c_bands:
     init_us_2    :      0.01s CPU      0.01s WALL (      38 calls)
     cegterg      :      4.18s CPU      4.20s WALL (      16 calls)

     Called by *egterg:
     cdiaghg      :      0.09s CPU      0.11s WALL (     104 calls)
                                        0.11s GPU  (     104 calls)
     h_psi        :      0.33s CPU      0.49s WALL (     106 calls)
                                        0.49s GPU  (     106 calls)
     s_psi        :      0.01s CPU      0.01s WALL (     106 calls)
     g_psi        :      0.00s CPU      0.00s WALL (      88 calls)
                                        0.00s GPU  (      88 calls)

     Called by h_psi:
     h_psi:calbec :      0.10s CPU      0.29s WALL (     106 calls)
                                        0.29s GPU  (     106 calls)
     vloc_psi     :      0.17s CPU      0.18s WALL (     106 calls)
                                        0.18s GPU  (     106 calls)
     add_vuspsi   :      0.01s CPU      0.02s WALL (     106 calls)
                                        0.02s GPU  (     106 calls)

     General routines
     calbec       :      0.10s CPU      0.25s WALL (     132 calls)
     fft          :      5.62s CPU      7.59s WALL (     263 calls)
                                        0.07s GPU  (     245 calls)
     ffts         :      2.42s CPU      3.16s WALL (      34 calls)
                                        0.00s GPU  (      16 calls)
     fftw         :      0.01s CPU      0.15s WALL (     228 calls)
                                        0.15s GPU  (     228 calls)
     interpolate  :      8.29s CPU     11.00s WALL (      18 calls)
 
     Parallel routines
 
     PWSCF        :     19.27s CPU     23.26s WALL

 
   This run was terminated on:   8: 9: 9   6May2026            

=------------------------------------------------------------------------------=
   JOB DONE.
=------------------------------------------------------------------------------=
Warning: ieee_invalid is signaling
Warning: ieee_divide_by_zero is signaling
Warning: ieee_inexact is signaling
FORTRAN STOP
