--------------------------------------------------------------------------
WARNING: Open MPI tried to bind a process but failed.  This is a
warning only; your job will continue, though performance may
be degraded.

  Local host:        3253031b5b37
  Application name:  /root/qe-7.3.1/bin/pw.x
  Error message:     failed to bind memory
  Location:          ../../../../../orte/mca/rtc/hwloc/rtc_hwloc.c:447

--------------------------------------------------------------------------

     Program PWSCF v.7.3.1 starts on  6May2026 at  7:56:53 

     This program is part of the open-source Quantum ESPRESSO suite
     for quantum simulation of materials; please cite
         "P. Giannozzi et al., J. Phys.:Condens. Matter 21 395502 (2009);
         "P. Giannozzi et al., J. Phys.:Condens. Matter 29 465901 (2017);
         "P. Giannozzi et al., J. Chem. Phys. 152 154105 (2020);
          URL http://www.quantum-espresso.org", 
     in publications or presentations arising from this work. More details at
     http://www.quantum-espresso.org/quote

     Parallel version (MPI & OpenMP), running on       8 processor cores
     Number of MPI processes:                 1
     Threads/MPI process:                     8

     MPI processes distributed on     1 nodes
     90536 MiB available memory on the printing compute node when the environment starts
 
     Reading input from atom_Hf.in

     Current dimensions of program PWSCF are:
     Max number of different atomic species (ntypx) = 10
     Max number of k-points (npk) =  40000
     Max angular momentum in pseudopotentials (lmaxx) =  4
     file Hf.UPF: wavefunction(s)  5P renormalized
     Message from routine setup:
     using ibrav=0 with symmetry is DISCOURAGED, use correct ibrav instead
 
     Subspace diagonalization in iterative solution of the eigenvalue problem:
     a serial algorithm will be used

 
     G-vector sticks info
     --------------------
     sticks:   dense  smooth     PW     G-vecs:    dense   smooth      PW
     Sum       11513    7685   1917               929121   505887   63077
 
     Using Slab Decomposition
 


     bravais-lattice index     =            0
     lattice parameter (alat)  =      28.3459  a.u.
     unit-cell volume          =   22775.6289 (a.u.)^3
     number of atoms/cell      =            1
     number of atomic types    =            1
     number of electrons       =        12.00
     number of Kohn-Sham states=           10
     kinetic-energy cutoff     =      30.0000  Ry
     charge density cutoff     =     180.0000  Ry
     scf convergence threshold =      1.0E-07
     mixing beta               =       0.4000
     number of iterations used =            8  plain     mixing
     Exchange-correlation= SLA  PW   PBX  PBC
                           (   1   4   3   4   0   0   0)

     GPU acceleration is ACTIVE.  1 visible GPUs per MPI rank


     celldm(1)=  28.345892  celldm(2)=   0.000000  celldm(3)=   0.000000
     celldm(4)=   0.000000  celldm(5)=   0.000000  celldm(6)=   0.000000

     crystal axes: (cart. coord. in units of alat)
               a(1) = (   1.000000   0.000000   0.000000 )  
               a(2) = (   0.000000   1.000000   0.000000 )  
               a(3) = (   0.000000   0.000000   1.000000 )  

     reciprocal axes: (cart. coord. in units 2 pi/alat)
               b(1) = (  1.000000  0.000000  0.000000 )  
               b(2) = (  0.000000  1.000000  0.000000 )  
               b(3) = (  0.000000  0.000000  1.000000 )  


     PseudoPot. # 1 for Hf read from file:
     /root/qe_pseudos/Hf.UPF
     MD5 check sum: bf8a91e620b6303fe4cf956cf37905ef
     Pseudo is Projector augmented-wave + core cor, Zval = 12.0
     Generated using &quot;atomic&quot; code by A. Dal Corso  v.6.2.2
     Shape of augmentation charge: PSQ
     Using radial grid of 1271 points,  6 beta functions with: 
                l(1) =   0
                l(2) =   0
                l(3) =   1
                l(4) =   1
                l(5) =   2
                l(6) =   2
     Q(r) pseudized with 0 coefficients 


     atomic species   valence    mass     pseudopotential
     Hf               12.00   178.49000     Hf( 1.00)

     Starting magnetic structure 
     atomic species   magnetization
     Hf              0.500

     48 Sym. Ops., with inversion, found



   Cartesian axes

     site n.     atom                  positions (alat units)
         1        Hf     tau(   1) = (   0.5000000   0.5000000   0.5000000  )

     number of k points=     1  Methfessel-Paxton smearing, width (Ry)=  0.0100
                       cart. coord. in units 2pi/alat
        k(    1) = (   0.0000000   0.0000000   0.0000000), wk =   1.0000000

     Dense  grid:   929121 G-vectors     FFT dimensions: ( 125, 125, 125)

     Smooth grid:   505887 G-vectors     FFT dimensions: ( 100, 100, 100)

     Estimated max dynamical RAM per process >       3.70 GB

     Check: negative core charge=   -0.000001
     Generating pointlists ...
     new r_m :   0.4125 (alat units) 11.6927 (a.u.) for type    1

     Initial potential from superposition of free atoms

     starting charge      11.9981, renormalised to      12.0000

     negative rho (up, down):  4.763E-02 1.588E-02
     Starting wfcs are   10 randomized atomic wfcs
     Checking if some PAW data can be deallocated... 

     total cpu time spent up to now is       12.2 secs

     Self-consistent Calculation

     iteration #  1     ecut=    30.00 Ry     beta= 0.40
     Davidson diagonalization with overlap
     ethr =  1.00E-02,  avg # of iterations =  1.0

     negative rho (up, down):  3.934E-02 2.030E-02

     total cpu time spent up to now is       14.1 secs

     total energy              =    -695.61988540 Ry
     estimated scf accuracy    <       0.20489523 Ry

     total magnetization       =     2.00 Bohr mag/cell
     absolute magnetization    =     2.00 Bohr mag/cell

     iteration #  2     ecut=    30.00 Ry     beta= 0.40
     Davidson diagonalization with overlap
     ethr =  1.71E-03,  avg # of iterations =  1.0

     negative rho (up, down):  3.663E-02 2.358E-02

     total cpu time spent up to now is       16.0 secs

     total energy              =    -695.69556280 Ry
     estimated scf accuracy    <       0.07431128 Ry

     total magnetization       =     2.00 Bohr mag/cell
     absolute magnetization    =     2.00 Bohr mag/cell

     iteration #  3     ecut=    30.00 Ry     beta= 0.40
     Davidson diagonalization with overlap
     ethr =  6.19E-04,  avg # of iterations =  1.0

     negative rho (up, down):  3.219E-02 2.446E-02

     total cpu time spent up to now is       17.9 secs

     total energy              =    -695.69764599 Ry
     estimated scf accuracy    <       0.00038919 Ry

     total magnetization       =     2.00 Bohr mag/cell
     absolute magnetization    =     2.00 Bohr mag/cell

     iteration #  4     ecut=    30.00 Ry     beta= 0.40
     Davidson diagonalization with overlap
     ethr =  3.24E-06,  avg # of iterations =  5.0

     negative rho (up, down):  2.984E-02 2.520E-02

     total cpu time spent up to now is       19.8 secs

     total energy              =    -695.69803930 Ry
     estimated scf accuracy    <       0.00060322 Ry

     total magnetization       =     2.00 Bohr mag/cell
     absolute magnetization    =     2.00 Bohr mag/cell

     iteration #  5     ecut=    30.00 Ry     beta= 0.40
     Davidson diagonalization with overlap
     ethr =  3.24E-06,  avg # of iterations =  1.0

     negative rho (up, down):  2.855E-02 2.568E-02

     total cpu time spent up to now is       21.8 secs

     total energy              =    -695.69809168 Ry
     estimated scf accuracy    <       0.00063749 Ry

     total magnetization       =     2.00 Bohr mag/cell
     absolute magnetization    =     2.00 Bohr mag/cell

     iteration #  6     ecut=    30.00 Ry     beta= 0.40
     Davidson diagonalization with overlap
     ethr =  3.24E-06,  avg # of iterations =  1.0

     negative rho (up, down):  2.726E-02 2.547E-02

     total cpu time spent up to now is       23.8 secs

     total energy              =    -695.69769625 Ry
     estimated scf accuracy    <       0.00065124 Ry

     total magnetization       =     2.00 Bohr mag/cell
     absolute magnetization    =     2.00 Bohr mag/cell

     iteration #  7     ecut=    30.00 Ry     beta= 0.40
     Davidson diagonalization with overlap
     ethr =  3.24E-06,  avg # of iterations =  2.0

     negative rho (up, down):  2.663E-02 2.544E-02

     total cpu time spent up to now is       25.7 secs

     total energy              =    -695.69794435 Ry
     estimated scf accuracy    <       0.00002392 Ry

     total magnetization       =     2.00 Bohr mag/cell
     absolute magnetization    =     2.00 Bohr mag/cell

     iteration #  8     ecut=    30.00 Ry     beta= 0.40
     Davidson diagonalization with overlap
     ethr =  1.99E-07,  avg # of iterations =  4.0

     negative rho (up, down):  2.704E-02 2.586E-02

     total cpu time spent up to now is       28.0 secs

     total energy              =    -695.69780574 Ry
     estimated scf accuracy    <       0.00033496 Ry

     total magnetization       =     2.00 Bohr mag/cell
     absolute magnetization    =     2.00 Bohr mag/cell

     iteration #  9     ecut=    30.00 Ry     beta= 0.40
     Davidson diagonalization with overlap
     ethr =  1.99E-07,  avg # of iterations =  4.0

     negative rho (up, down):  2.694E-02 2.597E-02

     total cpu time spent up to now is       30.1 secs

     total energy              =    -695.69790571 Ry
     estimated scf accuracy    <       0.00001967 Ry

     total magnetization       =     2.00 Bohr mag/cell
     absolute magnetization    =     2.00 Bohr mag/cell

     iteration # 10     ecut=    30.00 Ry     beta= 0.40
     Davidson diagonalization with overlap
     ethr =  1.64E-07,  avg # of iterations =  1.0

     negative rho (up, down):  2.674E-02 2.598E-02

     total cpu time spent up to now is       32.1 secs

     total energy              =    -695.69789105 Ry
     estimated scf accuracy    <       0.00002746 Ry

     total magnetization       =     2.00 Bohr mag/cell
     absolute magnetization    =     2.00 Bohr mag/cell

     iteration # 11     ecut=    30.00 Ry     beta= 0.40
     Davidson diagonalization with overlap
     ethr =  1.64E-07,  avg # of iterations =  2.5

     negative rho (up, down):  2.666E-02 2.600E-02

     total cpu time spent up to now is       34.2 secs

     total energy              =    -695.69789468 Ry
     estimated scf accuracy    <       0.00000047 Ry

     total magnetization       =     2.00 Bohr mag/cell
     absolute magnetization    =     2.00 Bohr mag/cell

     iteration # 12     ecut=    30.00 Ry     beta= 0.40
     Davidson diagonalization with overlap
     ethr =  3.92E-09,  avg # of iterations =  3.5

     negative rho (up, down):  2.666E-02 2.603E-02

     total cpu time spent up to now is       36.3 secs

     total energy              =    -695.69789500 Ry
     estimated scf accuracy    <       0.00000031 Ry

     total magnetization       =     2.00 Bohr mag/cell
     absolute magnetization    =     2.00 Bohr mag/cell

     iteration # 13     ecut=    30.00 Ry     beta= 0.40
     Davidson diagonalization with overlap
     ethr =  2.58E-09,  avg # of iterations =  2.0

     negative rho (up, down):  2.662E-02 2.607E-02
 
     Magnetic moment per site  (integrated on atomic sphere of radius R)
     atom   1 (R=0.413)  charge= 11.9998  magn=  2.0000

     total cpu time spent up to now is       38.3 secs

     End of self-consistent calculation

 ------ SPIN UP ------------


          k = 0.0000 0.0000 0.0000 ( 63077 PWs)   bands (ev):

   -67.1167 -35.7298 -35.7298 -35.7298  -5.3261  -2.9697  -2.9697  -2.9697
    -2.9694  -2.9694

 ------ SPIN DOWN ----------


          k = 0.0000 0.0000 0.0000 ( 63077 PWs)   bands (ev):

   -66.5391 -34.8927 -34.8927 -34.8927  -4.4974  -1.9215  -1.9215  -1.9198
    -1.9198  -1.9198

     the Fermi energy is    -2.9858 ev

!    total energy              =    -695.69789505 Ry
     total all-electron energy =    -30156.460080 Ry
     estimated scf accuracy    <          2.9E-09 Ry
     smearing contrib. (-TS)   =      -0.00675578 Ry
     internal energy E=F+TS    =    -695.69113927 Ry

     The total energy is F=E-TS. E is the sum of the following terms:
     one-electron contribution =    -126.91226587 Ry
     hartree contribution      =      60.76614122 Ry
     xc contribution           =     -40.94613667 Ry
     ewald contribution        =     -14.41375850 Ry
     one-center paw contrib.   =    -574.18511945 Ry

     total magnetization       =     2.00 Bohr mag/cell
     absolute magnetization    =     2.00 Bohr mag/cell

     convergence has been achieved in  13 iterations

     negative rho (up, down):  2.662E-02 2.607E-02

     Forces acting on atoms (cartesian axes, Ry/au):

     atom    1 type  1   force =     0.00000000    0.00000000    0.00000000

     Total force =     0.000000     Total SCF correction =     0.000000


     Computing stress (Cartesian axis) and pressure


     negative rho (up, down):  2.662E-02 2.607E-02
          total   stress  (Ry/bohr**3)                   (kbar)     P=       -0.35
  -0.00000235   0.00000000   0.00000000           -0.35        0.00        0.00
   0.00000000  -0.00000235   0.00000000            0.00       -0.35        0.00
   0.00000000   0.00000000  -0.00000235            0.00        0.00       -0.35


     Writing all to output data dir /root/qe_scratch/atom_Hf.save/ :
     XML data file, charge density, pseudopotentials, collected wavefunctions
 
     init_run     :      8.77s CPU     11.77s WALL (       1 calls)
     electrons    :     22.85s CPU     26.18s WALL (       1 calls)
     forces       :      0.19s CPU      0.22s WALL (       1 calls)
     stress       :      0.40s CPU      0.41s WALL (       1 calls)

     Called by init_run:
     wfcinit      :      0.14s CPU      0.33s WALL (       1 calls)
     potinit      :      7.57s CPU     10.11s WALL (       1 calls)
     hinit0       :      0.35s CPU      0.43s WALL (       1 calls)

     Called by electrons:
     c_bands      :      1.38s CPU      1.39s WALL (      13 calls)
     sum_band     :      2.33s CPU      2.35s WALL (      13 calls)
     v_of_rho     :      1.54s CPU      1.95s WALL (      14 calls)
     newd         :      0.43s CPU      0.51s WALL (      14 calls)
                                        0.51s GPU  (      14 calls)
     PAW_pot      :     11.82s CPU     13.99s WALL (      14 calls)
     mix_rho      :      1.90s CPU      2.07s WALL (      13 calls)

     Called by c_bands:
     init_us_2    :      0.02s CPU      0.02s WALL (      58 calls)
     cegterg      :      1.19s CPU      1.20s WALL (      26 calls)

     Called by *egterg:
     cdiaghg      :      0.08s CPU      0.09s WALL (      84 calls)
                                        0.09s GPU  (      84 calls)
     h_psi        :      0.36s CPU      0.53s WALL (      86 calls)
                                        0.53s GPU  (      86 calls)
     s_psi        :      0.00s CPU      0.00s WALL (      86 calls)
     g_psi        :      0.00s CPU      0.00s WALL (      58 calls)
                                        0.00s GPU  (      58 calls)

     Called by h_psi:
     h_psi:calbec :      0.09s CPU      0.29s WALL (      86 calls)
                                        0.29s GPU  (      86 calls)
     vloc_psi     :      0.20s CPU      0.21s WALL (      86 calls)
                                        0.21s GPU  (      86 calls)
     add_vuspsi   :      0.00s CPU      0.02s WALL (      86 calls)
                                        0.02s GPU  (      86 calls)

     General routines
     calbec       :      0.10s CPU      0.25s WALL (     122 calls)
     fft          :      6.53s CPU      8.66s WALL (     388 calls)
                                        0.10s GPU  (     360 calls)
     ffts         :      2.83s CPU      3.71s WALL (      54 calls)
                                        0.00s GPU  (      26 calls)
     fftw         :      0.01s CPU      0.19s WALL (     198 calls)
                                        0.19s GPU  (     198 calls)
     interpolate  :      9.72s CPU     12.70s WALL (      28 calls)
 
     Parallel routines
 
     PWSCF        :     32.76s CPU     39.29s WALL

 
   This run was terminated on:   7:57:32   6May2026            

=------------------------------------------------------------------------------=
   JOB DONE.
=------------------------------------------------------------------------------=
Warning: ieee_invalid is signaling
Warning: ieee_divide_by_zero is signaling
Warning: ieee_inexact is signaling
FORTRAN STOP
