--------------------------------------------------------------------------
WARNING: Open MPI tried to bind a process but failed.  This is a
warning only; your job will continue, though performance may
be degraded.

  Local host:        3253031b5b37
  Application name:  /root/qe-7.3.1/bin/pw.x
  Error message:     failed to bind memory
  Location:          ../../../../../orte/mca/rtc/hwloc/rtc_hwloc.c:447

--------------------------------------------------------------------------

     Program PWSCF v.7.3.1 starts on  6May2026 at  7:50:13 

     This program is part of the open-source Quantum ESPRESSO suite
     for quantum simulation of materials; please cite
         "P. Giannozzi et al., J. Phys.:Condens. Matter 21 395502 (2009);
         "P. Giannozzi et al., J. Phys.:Condens. Matter 29 465901 (2017);
         "P. Giannozzi et al., J. Chem. Phys. 152 154105 (2020);
          URL http://www.quantum-espresso.org", 
     in publications or presentations arising from this work. More details at
     http://www.quantum-espresso.org/quote

     Parallel version (MPI & OpenMP), running on       8 processor cores
     Number of MPI processes:                 1
     Threads/MPI process:                     8

     MPI processes distributed on     1 nodes
     91059 MiB available memory on the printing compute node when the environment starts
 
     Reading input from atom_Au.in

     Current dimensions of program PWSCF are:
     Max number of different atomic species (ntypx) = 10
     Max number of k-points (npk) =  40000
     Max angular momentum in pseudopotentials (lmaxx) =  4
     file Au.UPF: wavefunction(s)  6S 5D renormalized
     Message from routine setup:
     using ibrav=0 with symmetry is DISCOURAGED, use correct ibrav instead
 
     Subspace diagonalization in iterative solution of the eigenvalue problem:
     a serial algorithm will be used

 
     G-vector sticks info
     --------------------
     sticks:   dense  smooth     PW     G-vecs:    dense   smooth      PW
     Sum       11513    7685   1917               929121   505887   63077
 
     Using Slab Decomposition
 


     bravais-lattice index     =            0
     lattice parameter (alat)  =      28.3459  a.u.
     unit-cell volume          =   22775.6289 (a.u.)^3
     number of atoms/cell      =            1
     number of atomic types    =            1
     number of electrons       =        11.00
     number of Kohn-Sham states=           10
     kinetic-energy cutoff     =      30.0000  Ry
     charge density cutoff     =     180.0000  Ry
     scf convergence threshold =      1.0E-07
     mixing beta               =       0.4000
     number of iterations used =            8  plain     mixing
     Exchange-correlation= SLA  PW   PBX  PBC
                           (   1   4   3   4   0   0   0)

     GPU acceleration is ACTIVE.  1 visible GPUs per MPI rank


     celldm(1)=  28.345892  celldm(2)=   0.000000  celldm(3)=   0.000000
     celldm(4)=   0.000000  celldm(5)=   0.000000  celldm(6)=   0.000000

     crystal axes: (cart. coord. in units of alat)
               a(1) = (   1.000000   0.000000   0.000000 )  
               a(2) = (   0.000000   1.000000   0.000000 )  
               a(3) = (   0.000000   0.000000   1.000000 )  

     reciprocal axes: (cart. coord. in units 2 pi/alat)
               b(1) = (  1.000000  0.000000  0.000000 )  
               b(2) = (  0.000000  1.000000  0.000000 )  
               b(3) = (  0.000000  0.000000  1.000000 )  


     PseudoPot. # 1 for Au read from file:
     /root/qe_pseudos/Au.UPF
     MD5 check sum: 4db85c736373c707a97ce4c36c2a9d23
     Pseudo is Projector augmented-wave + core cor, Zval = 11.0
     Generated using &quot;atomic&quot; code by A. Dal Corso  v.6.3
     Shape of augmentation charge: PSQ
     Using radial grid of 1279 points,  6 beta functions with: 
                l(1) =   0
                l(2) =   0
                l(3) =   1
                l(4) =   1
                l(5) =   2
                l(6) =   2
     Q(r) pseudized with 0 coefficients 


     atomic species   valence    mass     pseudopotential
     Au               11.00   196.96660     Au( 1.00)

     Starting magnetic structure 
     atomic species   magnetization
     Au              0.500

     48 Sym. Ops., with inversion, found



   Cartesian axes

     site n.     atom                  positions (alat units)
         1        Au     tau(   1) = (   0.5000000   0.5000000   0.5000000  )

     number of k points=     1  Methfessel-Paxton smearing, width (Ry)=  0.0100
                       cart. coord. in units 2pi/alat
        k(    1) = (   0.0000000   0.0000000   0.0000000), wk =   1.0000000

     Dense  grid:   929121 G-vectors     FFT dimensions: ( 125, 125, 125)

     Smooth grid:   505887 G-vectors     FFT dimensions: ( 100, 100, 100)

     Estimated max dynamical RAM per process >       3.70 GB
     Generating pointlists ...
     new r_m :   0.4125 (alat units) 11.6927 (a.u.) for type    1

     Initial potential from superposition of free atoms

     starting charge      10.9999, renormalised to      11.0000

     negative rho (up, down):  5.723E-03 1.908E-03
     Starting wfcs are    9 randomized atomic wfcs +    1 random wfcs
     Checking if some PAW data can be deallocated... 

     total cpu time spent up to now is       11.9 secs

     Self-consistent Calculation

     iteration #  1     ecut=    30.00 Ry     beta= 0.40
     Davidson diagonalization with overlap
     ethr =  1.00E-02,  avg # of iterations =  5.5

     negative rho (up, down):  5.033E-03 2.900E-03

     total cpu time spent up to now is       14.6 secs

     total energy              =    -774.82416323 Ry
     estimated scf accuracy    <       0.17631375 Ry

     total magnetization       =     1.00 Bohr mag/cell
     absolute magnetization    =     1.00 Bohr mag/cell

     iteration #  2     ecut=    30.00 Ry     beta= 0.40
     Davidson diagonalization with overlap
     ethr =  1.60E-03,  avg # of iterations =  1.0

     negative rho (up, down):  7.213E-03 6.617E-03

     total cpu time spent up to now is       16.7 secs

     total energy              =    -774.90928959 Ry
     estimated scf accuracy    <       0.06575103 Ry

     total magnetization       =     1.00 Bohr mag/cell
     absolute magnetization    =     1.00 Bohr mag/cell

     iteration #  3     ecut=    30.00 Ry     beta= 0.40
     Davidson diagonalization with overlap
     ethr =  5.98E-04,  avg # of iterations =  2.0

     negative rho (up, down):  5.458E-03 5.213E-03

     total cpu time spent up to now is       18.7 secs

     total energy              =    -774.91270075 Ry
     estimated scf accuracy    <       0.00006607 Ry

     total magnetization       =     1.01 Bohr mag/cell
     absolute magnetization    =     1.02 Bohr mag/cell

     iteration #  4     ecut=    30.00 Ry     beta= 0.40
     Davidson diagonalization with overlap
     ethr =  6.01E-07,  avg # of iterations = 18.5

     negative rho (up, down):  4.533E-03 4.650E-03

     total cpu time spent up to now is       22.5 secs

     total energy              =    -774.91298461 Ry
     estimated scf accuracy    <       0.00001501 Ry

     total magnetization       =     1.00 Bohr mag/cell
     absolute magnetization    =     1.04 Bohr mag/cell

     iteration #  5     ecut=    30.00 Ry     beta= 0.40
     Davidson diagonalization with overlap
     ethr =  1.36E-07,  avg # of iterations =  3.0

     negative rho (up, down):  4.169E-03 4.638E-03

     total cpu time spent up to now is       24.5 secs

     total energy              =    -774.91301347 Ry
     estimated scf accuracy    <       0.00000936 Ry

     total magnetization       =     1.00 Bohr mag/cell
     absolute magnetization    =     1.04 Bohr mag/cell

     iteration #  6     ecut=    30.00 Ry     beta= 0.40
     Davidson diagonalization with overlap
     ethr =  8.51E-08,  avg # of iterations =  4.0

     negative rho (up, down):  3.992E-03 4.575E-03

     total cpu time spent up to now is       26.7 secs

     total energy              =    -774.91302331 Ry
     estimated scf accuracy    <       0.00000399 Ry

     total magnetization       =     1.00 Bohr mag/cell
     absolute magnetization    =     1.05 Bohr mag/cell

     iteration #  7     ecut=    30.00 Ry     beta= 0.40
     Davidson diagonalization with overlap
     ethr =  3.63E-08,  avg # of iterations =  2.0

     negative rho (up, down):  3.919E-03 4.619E-03

     total cpu time spent up to now is       28.7 secs

     total energy              =    -774.91302473 Ry
     estimated scf accuracy    <       0.00000025 Ry

     total magnetization       =     1.00 Bohr mag/cell
     absolute magnetization    =     1.05 Bohr mag/cell

     iteration #  8     ecut=    30.00 Ry     beta= 0.40
     Davidson diagonalization with overlap
     ethr =  2.30E-09,  avg # of iterations =  4.0

     negative rho (up, down):  3.886E-03 4.629E-03

     total cpu time spent up to now is       30.8 secs

     total energy              =    -774.91302482 Ry
     estimated scf accuracy    <       0.00000047 Ry

     total magnetization       =     1.00 Bohr mag/cell
     absolute magnetization    =     1.05 Bohr mag/cell

     iteration #  9     ecut=    30.00 Ry     beta= 0.40
     Davidson diagonalization with overlap
     ethr =  2.30E-09,  avg # of iterations =  2.0

     negative rho (up, down):  3.849E-03 4.679E-03
 
     Magnetic moment per site  (integrated on atomic sphere of radius R)
     atom   1 (R=0.413)  charge= 11.0000  magn=  1.0013

     total cpu time spent up to now is       32.5 secs

     End of self-consistent calculation

 ------ SPIN UP ------------


          k = 0.0000 0.0000 0.0000 ( 63077 PWs)   bands (ev):

    -6.8676  -6.8676  -6.8671  -6.8671  -6.8671  -5.9777  -0.8936  -0.8936
    -0.8936  -0.3281

 ------ SPIN DOWN ----------


          k = 0.0000 0.0000 0.0000 ( 63077 PWs)   bands (ev):

    -6.5808  -6.5808  -6.5792  -6.5792  -6.5792  -5.2633  -0.3484  -0.3484
    -0.3483  -0.2869

     the Fermi energy is    -5.6205 ev

!    total energy              =    -774.91302552 Ry
     total all-electron energy =    -38023.759117 Ry
     estimated scf accuracy    <          9.5E-09 Ry
     smearing contrib. (-TS)   =       0.00003661 Ry
     internal energy E=F+TS    =    -774.91306214 Ry

     The total energy is F=E-TS. E is the sum of the following terms:
     one-electron contribution =     -90.56622920 Ry
     hartree contribution      =      52.20387481 Ry
     xc contribution           =     -31.94219702 Ry
     ewald contribution        =     -12.11156096 Ry
     one-center paw contrib.   =    -692.49694977 Ry

     total magnetization       =     1.00 Bohr mag/cell
     absolute magnetization    =     1.05 Bohr mag/cell

     convergence has been achieved in   9 iterations

     negative rho (up, down):  3.849E-03 4.679E-03

     Forces acting on atoms (cartesian axes, Ry/au):

     atom    1 type  1   force =     0.00000000    0.00000000    0.00000000

     Total force =     0.000000     Total SCF correction =     0.000000


     Computing stress (Cartesian axis) and pressure


     negative rho (up, down):  3.849E-03 4.679E-03
          total   stress  (Ry/bohr**3)                   (kbar)     P=       -0.07
  -0.00000049   0.00000000   0.00000000           -0.07        0.00        0.00
   0.00000000  -0.00000049   0.00000000            0.00       -0.07        0.00
   0.00000000   0.00000000  -0.00000049            0.00        0.00       -0.07


     Writing all to output data dir /root/qe_scratch/atom_Au.save/ :
     XML data file, charge density, pseudopotentials, collected wavefunctions
 
     init_run     :      8.75s CPU     11.53s WALL (       1 calls)
     electrons    :     18.37s CPU     20.63s WALL (       1 calls)
     forces       :      0.18s CPU      0.22s WALL (       1 calls)
     stress       :      0.37s CPU      0.41s WALL (       1 calls)

     Called by init_run:
     wfcinit      :      0.26s CPU      0.44s WALL (       1 calls)
     potinit      :      7.42s CPU      9.76s WALL (       1 calls)
     hinit0       :      0.33s CPU      0.43s WALL (       1 calls)

     Called by electrons:
     c_bands      :      3.24s CPU      3.25s WALL (       9 calls)
     sum_band     :      1.61s CPU      1.65s WALL (       9 calls)
     v_of_rho     :      1.08s CPU      1.41s WALL (      10 calls)
     newd         :      0.34s CPU      0.41s WALL (      10 calls)
                                        0.41s GPU  (      10 calls)
     PAW_pot      :      8.92s CPU     10.30s WALL (      10 calls)
     mix_rho      :      1.05s CPU      1.20s WALL (       9 calls)

     Called by c_bands:
     init_us_2    :      0.01s CPU      0.01s WALL (      42 calls)
     cegterg      :      3.10s CPU      3.12s WALL (      18 calls)

     Called by *egterg:
     cdiaghg      :      0.09s CPU      0.11s WALL (     102 calls)
                                        0.11s GPU  (     102 calls)
     h_psi        :      0.46s CPU      0.61s WALL (     104 calls)
                                        0.61s GPU  (     104 calls)
     s_psi        :      0.01s CPU      0.01s WALL (     104 calls)
     g_psi        :      0.00s CPU      0.00s WALL (      84 calls)
                                        0.00s GPU  (      84 calls)

     Called by h_psi:
     h_psi:calbec :      0.11s CPU      0.29s WALL (     104 calls)
                                        0.29s GPU  (     104 calls)
     vloc_psi     :      0.28s CPU      0.29s WALL (     104 calls)
                                        0.29s GPU  (     104 calls)
     add_vuspsi   :      0.01s CPU      0.02s WALL (     104 calls)
                                        0.02s GPU  (     104 calls)

     General routines
     calbec       :      0.11s CPU      0.25s WALL (     132 calls)
     fft          :      5.84s CPU      7.77s WALL (     288 calls)
                                        0.08s GPU  (     268 calls)
     ffts         :      2.56s CPU      3.23s WALL (      38 calls)
                                        0.00s GPU  (      18 calls)
     fftw         :      0.11s CPU      0.27s WALL (     226 calls)
                                        0.27s GPU  (     226 calls)
     interpolate  :      8.63s CPU     11.22s WALL (      20 calls)
 
     Parallel routines
 
     PWSCF        :     28.21s CPU     33.51s WALL

 
   This run was terminated on:   7:50:46   6May2026            

=------------------------------------------------------------------------------=
   JOB DONE.
=------------------------------------------------------------------------------=
Warning: ieee_invalid is signaling
Warning: ieee_divide_by_zero is signaling
Warning: ieee_inexact is signaling
FORTRAN STOP
