--------------------------------------------------------------------------
WARNING: Open MPI tried to bind a process but failed.  This is a
warning only; your job will continue, though performance may
be degraded.

  Local host:        3253031b5b37
  Application name:  /root/qe-7.3.1/bin/pw.x
  Error message:     failed to bind memory
  Location:          ../../../../../orte/mca/rtc/hwloc/rtc_hwloc.c:447

--------------------------------------------------------------------------

     Program PWSCF v.7.3.1 starts on  6May2026 at  8: 3: 4 

     This program is part of the open-source Quantum ESPRESSO suite
     for quantum simulation of materials; please cite
         "P. Giannozzi et al., J. Phys.:Condens. Matter 21 395502 (2009);
         "P. Giannozzi et al., J. Phys.:Condens. Matter 29 465901 (2017);
         "P. Giannozzi et al., J. Chem. Phys. 152 154105 (2020);
          URL http://www.quantum-espresso.org", 
     in publications or presentations arising from this work. More details at
     http://www.quantum-espresso.org/quote

     Parallel version (MPI & OpenMP), running on       8 processor cores
     Number of MPI processes:                 1
     Threads/MPI process:                     8

     MPI processes distributed on     1 nodes
     89965 MiB available memory on the printing compute node when the environment starts
 
     Reading input from atom_Pb.in

     Current dimensions of program PWSCF are:
     Max number of different atomic species (ntypx) = 10
     Max number of k-points (npk) =  40000
     Max angular momentum in pseudopotentials (lmaxx) =  4
     file Pb.UPF: wavefunction(s)  6S 6P 5D renormalized
     Message from routine setup:
     using ibrav=0 with symmetry is DISCOURAGED, use correct ibrav instead
 
     Subspace diagonalization in iterative solution of the eigenvalue problem:
     a serial algorithm will be used

 
     G-vector sticks info
     --------------------
     sticks:   dense  smooth     PW     G-vecs:    dense   smooth      PW
     Sum       11513    7685   1917               929121   505887   63077
 
     Using Slab Decomposition
 


     bravais-lattice index     =            0
     lattice parameter (alat)  =      28.3459  a.u.
     unit-cell volume          =   22775.6289 (a.u.)^3
     number of atoms/cell      =            1
     number of atomic types    =            1
     number of electrons       =        14.00
     number of Kohn-Sham states=           11
     kinetic-energy cutoff     =      30.0000  Ry
     charge density cutoff     =     180.0000  Ry
     scf convergence threshold =      1.0E-07
     mixing beta               =       0.4000
     number of iterations used =            8  plain     mixing
     Exchange-correlation= SLA  PW   PBX  PBC
                           (   1   4   3   4   0   0   0)

     GPU acceleration is ACTIVE.  1 visible GPUs per MPI rank


     celldm(1)=  28.345892  celldm(2)=   0.000000  celldm(3)=   0.000000
     celldm(4)=   0.000000  celldm(5)=   0.000000  celldm(6)=   0.000000

     crystal axes: (cart. coord. in units of alat)
               a(1) = (   1.000000   0.000000   0.000000 )  
               a(2) = (   0.000000   1.000000   0.000000 )  
               a(3) = (   0.000000   0.000000   1.000000 )  

     reciprocal axes: (cart. coord. in units 2 pi/alat)
               b(1) = (  1.000000  0.000000  0.000000 )  
               b(2) = (  0.000000  1.000000  0.000000 )  
               b(3) = (  0.000000  0.000000  1.000000 )  


     PseudoPot. # 1 for Pb read from file:
     /root/qe_pseudos/Pb.UPF
     MD5 check sum: 8dd1fa6bc87c0adeb4efb5a3e91ed847
     Pseudo is Projector augmented-wave + core cor, Zval = 14.0
     Generated using &quot;atomic&quot; code by A. Dal Corso  v.6.3
     Shape of augmentation charge: PSQ
     Using radial grid of 1281 points,  6 beta functions with: 
                l(1) =   0
                l(2) =   0
                l(3) =   1
                l(4) =   1
                l(5) =   2
                l(6) =   2
     Q(r) pseudized with 0 coefficients 


     atomic species   valence    mass     pseudopotential
     Pb               14.00   207.20000     Pb( 1.00)

     Starting magnetic structure 
     atomic species   magnetization
     Pb              0.500

     48 Sym. Ops., with inversion, found



   Cartesian axes

     site n.     atom                  positions (alat units)
         1        Pb     tau(   1) = (   0.5000000   0.5000000   0.5000000  )

     number of k points=     1  Methfessel-Paxton smearing, width (Ry)=  0.0100
                       cart. coord. in units 2pi/alat
        k(    1) = (   0.0000000   0.0000000   0.0000000), wk =   1.0000000

     Dense  grid:   929121 G-vectors     FFT dimensions: ( 125, 125, 125)

     Smooth grid:   505887 G-vectors     FFT dimensions: ( 100, 100, 100)

     Estimated max dynamical RAM per process >       3.71 GB
     Generating pointlists ...
     new r_m :   0.4125 (alat units) 11.6927 (a.u.) for type    1

     Initial potential from superposition of free atoms

     starting charge      13.9976, renormalised to      14.0000

     negative rho (up, down):  3.554E-03 1.185E-03
     Starting wfcs are    9 randomized atomic wfcs +    2 random wfcs
     Checking if some PAW data can be deallocated... 

     total cpu time spent up to now is       11.9 secs

     Self-consistent Calculation

     iteration #  1     ecut=    30.00 Ry     beta= 0.40
     Davidson diagonalization with overlap
     ethr =  1.00E-02,  avg # of iterations =  6.0

     negative rho (up, down):  2.345E-03 1.019E-03

     total cpu time spent up to now is       14.2 secs

     total energy              =    -869.69326921 Ry
     estimated scf accuracy    <       0.36262204 Ry

     total magnetization       =     2.00 Bohr mag/cell
     absolute magnetization    =     2.00 Bohr mag/cell

     iteration #  2     ecut=    30.00 Ry     beta= 0.40
     Davidson diagonalization with overlap
     ethr =  2.59E-03,  avg # of iterations =  1.0

     negative rho (up, down):  1.647E-03 9.789E-04

     total cpu time spent up to now is       16.0 secs

     total energy              =    -869.82200394 Ry
     estimated scf accuracy    <       0.13045086 Ry

     total magnetization       =     2.00 Bohr mag/cell
     absolute magnetization    =     2.00 Bohr mag/cell

     iteration #  3     ecut=    30.00 Ry     beta= 0.40
     Davidson diagonalization with overlap
     ethr =  9.32E-04,  avg # of iterations =  1.0

     negative rho (up, down):  1.248E-03 1.016E-03

     total cpu time spent up to now is       17.9 secs

     total energy              =    -869.82564118 Ry
     estimated scf accuracy    <       0.00058781 Ry

     total magnetization       =     2.00 Bohr mag/cell
     absolute magnetization    =     2.01 Bohr mag/cell

     iteration #  4     ecut=    30.00 Ry     beta= 0.40
     Davidson diagonalization with overlap
     c_bands:  1 eigenvalues not converged
     c_bands:  1 eigenvalues not converged
     ethr =  4.20E-06,  avg # of iterations = 20.0

     negative rho (up, down):  9.956E-04 1.023E-03

     total cpu time spent up to now is       21.7 secs

     total energy              =    -869.82584378 Ry
     estimated scf accuracy    <       0.00010205 Ry

     total magnetization       =     2.00 Bohr mag/cell
     absolute magnetization    =     2.02 Bohr mag/cell

     iteration #  5     ecut=    30.00 Ry     beta= 0.40
     Davidson diagonalization with overlap
     ethr =  7.29E-07,  avg # of iterations = 11.5

     negative rho (up, down):  8.864E-04 1.028E-03

     total cpu time spent up to now is       25.5 secs

     total energy              =    -869.82585690 Ry
     estimated scf accuracy    <       0.00003152 Ry

     total magnetization       =     2.00 Bohr mag/cell
     absolute magnetization    =     2.02 Bohr mag/cell

     iteration #  6     ecut=    30.00 Ry     beta= 0.40
     Davidson diagonalization with overlap
     ethr =  2.25E-07,  avg # of iterations =  2.0

     negative rho (up, down):  8.240E-04 1.030E-03

     total cpu time spent up to now is       27.4 secs

     total energy              =    -869.82586094 Ry
     estimated scf accuracy    <       0.00000188 Ry

     total magnetization       =     2.00 Bohr mag/cell
     absolute magnetization    =     2.02 Bohr mag/cell

     iteration #  7     ecut=    30.00 Ry     beta= 0.40
     Davidson diagonalization with overlap
     ethr =  1.34E-08,  avg # of iterations =  2.0

     negative rho (up, down):  7.873E-04 1.032E-03

     total cpu time spent up to now is       29.5 secs

     total energy              =    -869.82586070 Ry
     estimated scf accuracy    <       0.00000071 Ry

     total magnetization       =     2.00 Bohr mag/cell
     absolute magnetization    =     2.02 Bohr mag/cell

     iteration #  8     ecut=    30.00 Ry     beta= 0.40
     Davidson diagonalization with overlap
     ethr =  5.09E-09,  avg # of iterations =  1.5

     negative rho (up, down):  7.666E-04 1.033E-03

     total cpu time spent up to now is       31.5 secs

     total energy              =    -869.82586068 Ry
     estimated scf accuracy    <       0.00000014 Ry

     total magnetization       =     2.00 Bohr mag/cell
     absolute magnetization    =     2.02 Bohr mag/cell

     iteration #  9     ecut=    30.00 Ry     beta= 0.40
     Davidson diagonalization with overlap
     ethr =  1.03E-09,  avg # of iterations =  2.5

     negative rho (up, down):  7.364E-04 1.034E-03
 
     Magnetic moment per site  (integrated on atomic sphere of radius R)
     atom   1 (R=0.413)  charge= 13.9990  magn=  1.9999

     total cpu time spent up to now is       33.4 secs

     End of self-consistent calculation

 ------ SPIN UP ------------


          k = 0.0000 0.0000 0.0000 ( 63077 PWs)   bands (ev):

   -20.6687 -20.6687 -20.6598 -20.6598 -20.6598 -12.3014  -3.8363  -3.8363
    -3.8363  -0.6505   0.1665

 ------ SPIN DOWN ----------


          k = 0.0000 0.0000 0.0000 ( 63077 PWs)   bands (ev):

   -20.4671 -20.4671 -20.4581 -20.4581 -20.4581 -11.2930  -2.6138  -2.6138
    -2.6138  -0.2039   0.4593

     the Fermi energy is    -3.8089 ev

!    total energy              =    -869.82586083 Ry
     total all-electron energy =    -41763.354318 Ry
     estimated scf accuracy    <          1.1E-09 Ry
     smearing contrib. (-TS)   =      -0.00373359 Ry
     internal energy E=F+TS    =    -869.82212724 Ry

     The total energy is F=E-TS. E is the sum of the following terms:
     one-electron contribution =    -164.98404946 Ry
     hartree contribution      =      87.57998698 Ry
     xc contribution           =     -32.35775168 Ry
     ewald contribution        =     -19.61872676 Ry
     one-center paw contrib.   =    -740.44158631 Ry

     total magnetization       =     2.00 Bohr mag/cell
     absolute magnetization    =     2.02 Bohr mag/cell

     convergence has been achieved in   9 iterations

     negative rho (up, down):  7.364E-04 1.034E-03

     Forces acting on atoms (cartesian axes, Ry/au):

     atom    1 type  1   force =     0.00000000    0.00000000    0.00000000

     Total force =     0.000000     Total SCF correction =     0.000000


     Computing stress (Cartesian axis) and pressure


     negative rho (up, down):  7.364E-04 1.034E-03
          total   stress  (Ry/bohr**3)                   (kbar)     P=      -19.41
  -0.00013195   0.00000000   0.00000000          -19.41        0.00        0.00
   0.00000000  -0.00013195   0.00000000            0.00      -19.41        0.00
   0.00000000   0.00000000  -0.00013195            0.00        0.00      -19.41


     Writing all to output data dir /root/qe_scratch/atom_Pb.save/ :
     XML data file, charge density, pseudopotentials, collected wavefunctions
 
     init_run     :      8.61s CPU     11.50s WALL (       1 calls)
     electrons    :     19.12s CPU     21.54s WALL (       1 calls)
     forces       :      0.18s CPU      0.22s WALL (       1 calls)
     stress       :      0.38s CPU      0.41s WALL (       1 calls)

     Called by init_run:
     wfcinit      :      0.14s CPU      0.35s WALL (       1 calls)
     potinit      :      7.41s CPU      9.82s WALL (       1 calls)
     hinit0       :      0.34s CPU      0.42s WALL (       1 calls)

     Called by electrons:
     c_bands      :      4.47s CPU      4.49s WALL (       9 calls)
     sum_band     :      1.61s CPU      1.65s WALL (       9 calls)
     v_of_rho     :      1.05s CPU      1.40s WALL (      10 calls)
     newd         :      0.33s CPU      0.41s WALL (      10 calls)
                                        0.41s GPU  (      10 calls)
     PAW_pot      :      8.58s CPU     10.10s WALL (      10 calls)
     mix_rho      :      1.05s CPU      1.19s WALL (       9 calls)

     Called by c_bands:
     init_us_2    :      0.01s CPU      0.01s WALL (      42 calls)
     cegterg      :      4.32s CPU      4.34s WALL (      18 calls)

     Called by *egterg:
     cdiaghg      :      0.10s CPU      0.12s WALL (     113 calls)
                                        0.12s GPU  (     113 calls)
     h_psi        :      0.34s CPU      0.52s WALL (     115 calls)
                                        0.52s GPU  (     115 calls)
     s_psi        :      0.01s CPU      0.01s WALL (     115 calls)
     g_psi        :      0.00s CPU      0.00s WALL (      95 calls)
                                        0.00s GPU  (      95 calls)

     Called by h_psi:
     h_psi:calbec :      0.09s CPU      0.30s WALL (     115 calls)
                                        0.30s GPU  (     115 calls)
     vloc_psi     :      0.18s CPU      0.19s WALL (     115 calls)
                                        0.19s GPU  (     115 calls)
     add_vuspsi   :      0.01s CPU      0.02s WALL (     115 calls)
                                        0.02s GPU  (     115 calls)

     General routines
     calbec       :      0.09s CPU      0.26s WALL (     143 calls)
     fft          :      5.80s CPU      7.74s WALL (     288 calls)
                                        0.08s GPU  (     268 calls)
     ffts         :      2.46s CPU      3.22s WALL (      38 calls)
                                        0.00s GPU  (      18 calls)
     fftw         :      0.01s CPU      0.17s WALL (     248 calls)
                                        0.17s GPU  (     248 calls)
     interpolate  :      8.52s CPU     11.18s WALL (      20 calls)
 
     Parallel routines
 
     PWSCF        :     28.86s CPU     34.40s WALL

 
   This run was terminated on:   8: 3:38   6May2026            

=------------------------------------------------------------------------------=
   JOB DONE.
=------------------------------------------------------------------------------=
Warning: ieee_invalid is signaling
Warning: ieee_divide_by_zero is signaling
Warning: ieee_inexact is signaling
FORTRAN STOP
