--------------------------------------------------------------------------
WARNING: Open MPI tried to bind a process but failed.  This is a
warning only; your job will continue, though performance may
be degraded.

  Local host:        3253031b5b37
  Application name:  /root/qe-7.3.1/bin/pw.x
  Error message:     failed to bind memory
  Location:          ../../../../../orte/mca/rtc/hwloc/rtc_hwloc.c:447

--------------------------------------------------------------------------

     Program PWSCF v.7.3.1 starts on  6May2026 at  7:50:50 

     This program is part of the open-source Quantum ESPRESSO suite
     for quantum simulation of materials; please cite
         "P. Giannozzi et al., J. Phys.:Condens. Matter 21 395502 (2009);
         "P. Giannozzi et al., J. Phys.:Condens. Matter 29 465901 (2017);
         "P. Giannozzi et al., J. Chem. Phys. 152 154105 (2020);
          URL http://www.quantum-espresso.org", 
     in publications or presentations arising from this work. More details at
     http://www.quantum-espresso.org/quote

     Parallel version (MPI & OpenMP), running on       8 processor cores
     Number of MPI processes:                 1
     Threads/MPI process:                     8

     MPI processes distributed on     1 nodes
     90993 MiB available memory on the printing compute node when the environment starts
 
     Reading input from atom_Ba.in

     Current dimensions of program PWSCF are:
     Max number of different atomic species (ntypx) = 10
     Max number of k-points (npk) =  40000
     Max angular momentum in pseudopotentials (lmaxx) =  4
     file Ba.UPF: wavefunction(s)  5S 6S renormalized
     Message from routine setup:
     using ibrav=0 with symmetry is DISCOURAGED, use correct ibrav instead
 
     Subspace diagonalization in iterative solution of the eigenvalue problem:
     a serial algorithm will be used

 
     G-vector sticks info
     --------------------
     sticks:   dense  smooth     PW     G-vecs:    dense   smooth      PW
     Sum       11513    7685   1917               929121   505887   63077
 
     Using Slab Decomposition
 


     bravais-lattice index     =            0
     lattice parameter (alat)  =      28.3459  a.u.
     unit-cell volume          =   22775.6289 (a.u.)^3
     number of atoms/cell      =            1
     number of atomic types    =            1
     number of electrons       =        10.00
     number of Kohn-Sham states=            9
     kinetic-energy cutoff     =      30.0000  Ry
     charge density cutoff     =     180.0000  Ry
     scf convergence threshold =      1.0E-07
     mixing beta               =       0.4000
     number of iterations used =            8  plain     mixing
     Exchange-correlation= SLA  PW   PBX  PBC
                           (   1   4   3   4   0   0   0)

     GPU acceleration is ACTIVE.  1 visible GPUs per MPI rank


     celldm(1)=  28.345892  celldm(2)=   0.000000  celldm(3)=   0.000000
     celldm(4)=   0.000000  celldm(5)=   0.000000  celldm(6)=   0.000000

     crystal axes: (cart. coord. in units of alat)
               a(1) = (   1.000000   0.000000   0.000000 )  
               a(2) = (   0.000000   1.000000   0.000000 )  
               a(3) = (   0.000000   0.000000   1.000000 )  

     reciprocal axes: (cart. coord. in units 2 pi/alat)
               b(1) = (  1.000000  0.000000  0.000000 )  
               b(2) = (  0.000000  1.000000  0.000000 )  
               b(3) = (  0.000000  0.000000  1.000000 )  


     PseudoPot. # 1 for Ba read from file:
     /root/qe_pseudos/Ba.UPF
     MD5 check sum: 7cfe25f1fe7574a4710541d5a11d6531
     Pseudo is Projector augmented-wave + core cor, Zval = 10.0
     Generated using &quot;atomic&quot; code by A. Dal Corso  v.6.2.2
     Shape of augmentation charge: PSQ
     Using radial grid of 1251 points,  7 beta functions with: 
                l(1) =   0
                l(2) =   0
                l(3) =   0
                l(4) =   1
                l(5) =   1
                l(6) =   2
                l(7) =   2
     Q(r) pseudized with 0 coefficients 


     atomic species   valence    mass     pseudopotential
     Ba               10.00   137.32700     Ba( 1.00)

     Starting magnetic structure 
     atomic species   magnetization
     Ba              0.500

     48 Sym. Ops., with inversion, found



   Cartesian axes

     site n.     atom                  positions (alat units)
         1        Ba     tau(   1) = (   0.5000000   0.5000000   0.5000000  )

     number of k points=     1  Methfessel-Paxton smearing, width (Ry)=  0.0100
                       cart. coord. in units 2pi/alat
        k(    1) = (   0.0000000   0.0000000   0.0000000), wk =   1.0000000

     Dense  grid:   929121 G-vectors     FFT dimensions: ( 125, 125, 125)

     Smooth grid:   505887 G-vectors     FFT dimensions: ( 100, 100, 100)

     Estimated max dynamical RAM per process >       3.97 GB
     Generating pointlists ...
     new r_m :   0.4125 (alat units) 11.6927 (a.u.) for type    1

     Initial potential from superposition of free atoms

     starting charge       9.9830, renormalised to      10.0000

     negative rho (up, down):  1.434E-03 4.781E-04
     Starting wfcs are    5 randomized atomic wfcs +    4 random wfcs
     Checking if some PAW data can be deallocated... 

     total cpu time spent up to now is       11.8 secs

     Self-consistent Calculation

     iteration #  1     ecut=    30.00 Ry     beta= 0.40
     Davidson diagonalization with overlap
     ethr =  1.00E-02,  avg # of iterations = 11.0

     Threshold (ethr) on eigenvalues was too large:
     Diagonalizing with lowered threshold

     Davidson diagonalization with overlap
     ethr =  7.41E-04,  avg # of iterations =  3.0

     negative rho (up, down):  6.991E-04 2.492E-04

     total cpu time spent up to now is       14.6 secs

     total energy              =    -435.93143461 Ry
     estimated scf accuracy    <       0.07530043 Ry

     total magnetization       =     0.94 Bohr mag/cell
     absolute magnetization    =     0.97 Bohr mag/cell

     iteration #  2     ecut=    30.00 Ry     beta= 0.40
     Davidson diagonalization with overlap
     ethr =  7.53E-04,  avg # of iterations =  1.0

     negative rho (up, down):  5.942E-04 1.989E-04

     total cpu time spent up to now is       16.6 secs

     total energy              =    -436.01963946 Ry
     estimated scf accuracy    <       0.03413786 Ry

     total magnetization       =    -0.04 Bohr mag/cell
     absolute magnetization    =     0.14 Bohr mag/cell

     iteration #  3     ecut=    30.00 Ry     beta= 0.40
     Davidson diagonalization with overlap
     ethr =  3.41E-04,  avg # of iterations =  9.5

     negative rho (up, down):  5.889E-04 3.303E-04

     total cpu time spent up to now is       19.7 secs

     total energy              =    -436.04156110 Ry
     estimated scf accuracy    <       0.00745123 Ry

     total magnetization       =    -0.00 Bohr mag/cell
     absolute magnetization    =     0.07 Bohr mag/cell

     iteration #  4     ecut=    30.00 Ry     beta= 0.40
     Davidson diagonalization with overlap
     ethr =  7.45E-05,  avg # of iterations =  9.0

     negative rho (up, down):  4.861E-04 3.357E-04

     total cpu time spent up to now is       22.9 secs

     total energy              =    -436.04206138 Ry
     estimated scf accuracy    <       0.00026895 Ry

     total magnetization       =     0.00 Bohr mag/cell
     absolute magnetization    =     0.02 Bohr mag/cell

     iteration #  5     ecut=    30.00 Ry     beta= 0.40
     Davidson diagonalization with overlap
     ethr =  2.69E-06,  avg # of iterations =  5.5

     negative rho (up, down):  4.375E-04 3.423E-04

     total cpu time spent up to now is       25.1 secs

     total energy              =    -436.04213998 Ry
     estimated scf accuracy    <       0.00002184 Ry

     total magnetization       =     0.00 Bohr mag/cell
     absolute magnetization    =     0.01 Bohr mag/cell

     iteration #  6     ecut=    30.00 Ry     beta= 0.40
     Davidson diagonalization with overlap
     ethr =  2.18E-07,  avg # of iterations =  3.5

     negative rho (up, down):  4.083E-04 3.638E-04

     total cpu time spent up to now is       27.4 secs

     total energy              =    -436.04214687 Ry
     estimated scf accuracy    <       0.00001363 Ry

     total magnetization       =     0.00 Bohr mag/cell
     absolute magnetization    =     0.00 Bohr mag/cell

     iteration #  7     ecut=    30.00 Ry     beta= 0.40
     Davidson diagonalization with overlap
     ethr =  1.36E-07,  avg # of iterations =  1.5

     negative rho (up, down):  3.977E-04 3.726E-04

     total cpu time spent up to now is       29.5 secs

     total energy              =    -436.04214786 Ry
     estimated scf accuracy    <       0.00000032 Ry

     total magnetization       =     0.00 Bohr mag/cell
     absolute magnetization    =     0.00 Bohr mag/cell

     iteration #  8     ecut=    30.00 Ry     beta= 0.40
     Davidson diagonalization with overlap
     ethr =  3.24E-09,  avg # of iterations =  4.0

     negative rho (up, down):  3.869E-04 3.862E-04
 
     Magnetic moment per site  (integrated on atomic sphere of radius R)
     atom   1 (R=0.413)  charge=  9.9981  magn=  0.0000

     total cpu time spent up to now is       31.4 secs

     End of self-consistent calculation

 ------ SPIN UP ------------


          k = 0.0000 0.0000 0.0000 ( 63077 PWs)   bands (ev):

   -33.4657 -18.5300 -18.5300 -18.5300  -3.0256  -1.8154  -1.8147  -1.8145
    -1.8144

 ------ SPIN DOWN ----------


          k = 0.0000 0.0000 0.0000 ( 63077 PWs)   bands (ev):

   -33.4656 -18.5300 -18.5300 -18.5300  -3.0254  -1.8151  -1.8150  -1.8141
    -1.8141

     the Fermi energy is    -2.4310 ev

!    total energy              =    -436.04214800 Ry
     total all-electron energy =    -16271.135264 Ry
     estimated scf accuracy    <       0.00000002 Ry
     smearing contrib. (-TS)   =       0.00000000 Ry
     internal energy E=F+TS    =    -436.04214800 Ry

     The total energy is F=E-TS. E is the sum of the following terms:
     one-electron contribution =     -60.72930431 Ry
     hartree contribution      =      29.53033404 Ry
     xc contribution           =     -19.88241308 Ry
     ewald contribution        =     -10.00955451 Ry
     one-center paw contrib.   =    -374.95121014 Ry

     total magnetization       =    -0.00 Bohr mag/cell
     absolute magnetization    =     0.00 Bohr mag/cell

     convergence has been achieved in   8 iterations

     negative rho (up, down):  3.869E-04 3.862E-04

     Forces acting on atoms (cartesian axes, Ry/au):

     atom    1 type  1   force =     0.00000000    0.00000000    0.00000000

     Total force =     0.000000     Total SCF correction =     0.000000


     Computing stress (Cartesian axis) and pressure


     negative rho (up, down):  3.869E-04 3.862E-04
          total   stress  (Ry/bohr**3)                   (kbar)     P=       -0.01
  -0.00000007   0.00000000   0.00000000           -0.01        0.00        0.00
   0.00000000  -0.00000007   0.00000000            0.00       -0.01        0.00
   0.00000000   0.00000000  -0.00000007            0.00        0.00       -0.01


     Writing all to output data dir /root/qe_scratch/atom_Ba.save/ :
     XML data file, charge density, pseudopotentials, collected wavefunctions
 
     init_run     :      8.41s CPU     11.43s WALL (       1 calls)
     electrons    :     17.51s CPU     19.58s WALL (       1 calls)
     forces       :      0.19s CPU      0.22s WALL (       1 calls)
     stress       :      0.40s CPU      0.43s WALL (       1 calls)

     Called by init_run:
     wfcinit      :      0.14s CPU      0.34s WALL (       1 calls)
     potinit      :      7.26s CPU      9.77s WALL (       1 calls)
     hinit0       :      0.32s CPU      0.43s WALL (       1 calls)

     Called by electrons:
     c_bands      :      3.93s CPU      3.95s WALL (       9 calls)
     sum_band     :      1.51s CPU      1.56s WALL (       9 calls)
     v_of_rho     :      1.01s CPU      1.29s WALL (       9 calls)
     newd         :      0.29s CPU      0.36s WALL (       9 calls)
                                        0.36s GPU  (       9 calls)
     PAW_pot      :      8.14s CPU      9.42s WALL (       9 calls)
     mix_rho      :      0.91s CPU      1.01s WALL (       9 calls)

     Called by c_bands:
     init_us_2    :      0.01s CPU      0.01s WALL (      42 calls)
     cegterg      :      3.81s CPU      3.82s WALL (      18 calls)

     Called by *egterg:
     cdiaghg      :      0.08s CPU      0.11s WALL (     112 calls)
                                        0.11s GPU  (     112 calls)
     h_psi        :      0.33s CPU      0.51s WALL (     116 calls)
                                        0.51s GPU  (     116 calls)
     s_psi        :      0.01s CPU      0.01s WALL (     116 calls)
     g_psi        :      0.00s CPU      0.00s WALL (      96 calls)
                                        0.00s GPU  (      96 calls)

     Called by h_psi:
     h_psi:calbec :      0.10s CPU      0.31s WALL (     116 calls)
                                        0.31s GPU  (     116 calls)
     vloc_psi     :      0.16s CPU      0.17s WALL (     116 calls)
                                        0.17s GPU  (     116 calls)
     add_vuspsi   :      0.01s CPU      0.02s WALL (     116 calls)
                                        0.02s GPU  (     116 calls)

     General routines
     calbec       :      0.10s CPU      0.27s WALL (     144 calls)
     fft          :      5.60s CPU      7.60s WALL (     265 calls)
                                        0.07s GPU  (     247 calls)
     ffts         :      2.33s CPU      3.06s WALL (      36 calls)
                                        0.00s GPU  (      18 calls)
     fftw         :      0.01s CPU      0.15s WALL (     250 calls)
                                        0.15s GPU  (     250 calls)
     interpolate  :      8.18s CPU     10.89s WALL (      18 calls)
 
     Parallel routines
 
     PWSCF        :     27.11s CPU     32.44s WALL

 
   This run was terminated on:   7:51:22   6May2026            

=------------------------------------------------------------------------------=
   JOB DONE.
=------------------------------------------------------------------------------=
Warning: ieee_invalid is signaling
Warning: ieee_divide_by_zero is signaling
Warning: ieee_inexact is signaling
FORTRAN STOP
