--------------------------------------------------------------------------
WARNING: Open MPI tried to bind a process but failed.  This is a
warning only; your job will continue, though performance may
be degraded.

  Local host:        3253031b5b37
  Application name:  /root/qe-7.3.1/bin/pw.x
  Error message:     failed to bind memory
  Location:          ../../../../../orte/mca/rtc/hwloc/rtc_hwloc.c:447

--------------------------------------------------------------------------

     Program PWSCF v.7.3.1 starts on  6May2026 at  8: 9:12 

     This program is part of the open-source Quantum ESPRESSO suite
     for quantum simulation of materials; please cite
         "P. Giannozzi et al., J. Phys.:Condens. Matter 21 395502 (2009);
         "P. Giannozzi et al., J. Phys.:Condens. Matter 29 465901 (2017);
         "P. Giannozzi et al., J. Chem. Phys. 152 154105 (2020);
          URL http://www.quantum-espresso.org", 
     in publications or presentations arising from this work. More details at
     http://www.quantum-espresso.org/quote

     Parallel version (MPI & OpenMP), running on       8 processor cores
     Number of MPI processes:                 1
     Threads/MPI process:                     8

     MPI processes distributed on     1 nodes
     89505 MiB available memory on the printing compute node when the environment starts
 
     Reading input from atom_Sr.in

     Current dimensions of program PWSCF are:
     Max number of different atomic species (ntypx) = 10
     Max number of k-points (npk) =  40000
     Max angular momentum in pseudopotentials (lmaxx) =  4
     file Sr.UPF: wavefunction(s)  4P renormalized
     Message from routine setup:
     using ibrav=0 with symmetry is DISCOURAGED, use correct ibrav instead
 
     Subspace diagonalization in iterative solution of the eigenvalue problem:
     a serial algorithm will be used

 
     G-vector sticks info
     --------------------
     sticks:   dense  smooth     PW     G-vecs:    dense   smooth      PW
     Sum       11513    7685   1917               929121   505887   63077
 
     Using Slab Decomposition
 


     bravais-lattice index     =            0
     lattice parameter (alat)  =      28.3459  a.u.
     unit-cell volume          =   22775.6289 (a.u.)^3
     number of atoms/cell      =            1
     number of atomic types    =            1
     number of electrons       =        10.00
     number of Kohn-Sham states=            9
     kinetic-energy cutoff     =      30.0000  Ry
     charge density cutoff     =     180.0000  Ry
     scf convergence threshold =      1.0E-07
     mixing beta               =       0.4000
     number of iterations used =            8  plain     mixing
     Exchange-correlation= SLA  PW   PBX  PBC
                           (   1   4   3   4   0   0   0)

     GPU acceleration is ACTIVE.  1 visible GPUs per MPI rank


     celldm(1)=  28.345892  celldm(2)=   0.000000  celldm(3)=   0.000000
     celldm(4)=   0.000000  celldm(5)=   0.000000  celldm(6)=   0.000000

     crystal axes: (cart. coord. in units of alat)
               a(1) = (   1.000000   0.000000   0.000000 )  
               a(2) = (   0.000000   1.000000   0.000000 )  
               a(3) = (   0.000000   0.000000   1.000000 )  

     reciprocal axes: (cart. coord. in units 2 pi/alat)
               b(1) = (  1.000000  0.000000  0.000000 )  
               b(2) = (  0.000000  1.000000  0.000000 )  
               b(3) = (  0.000000  0.000000  1.000000 )  


     PseudoPot. # 1 for Sr read from file:
     /root/qe_pseudos/Sr.UPF
     MD5 check sum: a3c6d0287e6b0f325c5350c23079ab60
     Pseudo is Projector augmented-wave + core cor, Zval = 10.0
     Generated using &quot;atomic&quot; code by A. Dal Corso  v.6.2.2
     Shape of augmentation charge: PSQ
     Using radial grid of 1221 points,  6 beta functions with: 
                l(1) =   0
                l(2) =   0
                l(3) =   1
                l(4) =   1
                l(5) =   2
                l(6) =   2
     Q(r) pseudized with 0 coefficients 


     atomic species   valence    mass     pseudopotential
     Sr               10.00    87.62000     Sr( 1.00)

     Starting magnetic structure 
     atomic species   magnetization
     Sr              0.500

     48 Sym. Ops., with inversion, found



   Cartesian axes

     site n.     atom                  positions (alat units)
         1        Sr     tau(   1) = (   0.5000000   0.5000000   0.5000000  )

     number of k points=     1  Methfessel-Paxton smearing, width (Ry)=  0.0100
                       cart. coord. in units 2pi/alat
        k(    1) = (   0.0000000   0.0000000   0.0000000), wk =   1.0000000

     Dense  grid:   929121 G-vectors     FFT dimensions: ( 125, 125, 125)

     Smooth grid:   505887 G-vectors     FFT dimensions: ( 100, 100, 100)

     Estimated max dynamical RAM per process >       3.70 GB
     Generating pointlists ...
     new r_m :   0.4125 (alat units) 11.6927 (a.u.) for type    1

     Initial potential from superposition of free atoms

     starting charge       9.9924, renormalised to      10.0000

     negative rho (up, down):  1.911E-03 6.371E-04
     Starting wfcs are    8 randomized atomic wfcs +    1 random wfcs
     Checking if some PAW data can be deallocated... 

     total cpu time spent up to now is       11.8 secs

     Self-consistent Calculation

     iteration #  1     ecut=    30.00 Ry     beta= 0.40
     Davidson diagonalization with overlap
     ethr =  1.00E-02,  avg # of iterations =  9.0

     negative rho (up, down):  9.934E-04 1.306E-04

     total cpu time spent up to now is       15.1 secs

     total energy              =    -260.01539578 Ry
     estimated scf accuracy    <       0.13580478 Ry

     total magnetization       =    -0.00 Bohr mag/cell
     absolute magnetization    =     0.15 Bohr mag/cell

     iteration #  2     ecut=    30.00 Ry     beta= 0.40
     Davidson diagonalization with overlap
     ethr =  1.36E-03,  avg # of iterations =  1.0

     negative rho (up, down):  1.456E-03 1.535E-04

     total cpu time spent up to now is       17.0 secs

     total energy              =    -260.12467507 Ry
     estimated scf accuracy    <       0.05005318 Ry

     total magnetization       =    -0.00 Bohr mag/cell
     absolute magnetization    =     0.10 Bohr mag/cell

     iteration #  3     ecut=    30.00 Ry     beta= 0.40
     Davidson diagonalization with overlap
     ethr =  5.01E-04,  avg # of iterations =  1.0

     negative rho (up, down):  8.384E-04 1.287E-04

     total cpu time spent up to now is       18.9 secs

     total energy              =    -260.12672481 Ry
     estimated scf accuracy    <       0.00002114 Ry

     total magnetization       =    -0.00 Bohr mag/cell
     absolute magnetization    =     0.03 Bohr mag/cell

     iteration #  4     ecut=    30.00 Ry     beta= 0.40
     Davidson diagonalization with overlap
     ethr =  2.11E-07,  avg # of iterations = 14.0

     negative rho (up, down):  4.722E-04 1.067E-04

     total cpu time spent up to now is       22.2 secs

     total energy              =    -260.12688644 Ry
     estimated scf accuracy    <       0.00000526 Ry

     total magnetization       =     0.00 Bohr mag/cell
     absolute magnetization    =     0.01 Bohr mag/cell

     iteration #  5     ecut=    30.00 Ry     beta= 0.40
     Davidson diagonalization with overlap
     ethr =  5.26E-08,  avg # of iterations =  2.0

     negative rho (up, down):  2.452E-04 1.196E-04

     total cpu time spent up to now is       24.5 secs

     total energy              =    -260.12689794 Ry
     estimated scf accuracy    <       0.00000235 Ry

     total magnetization       =    -0.00 Bohr mag/cell
     absolute magnetization    =     0.00 Bohr mag/cell

     iteration #  6     ecut=    30.00 Ry     beta= 0.40
     Davidson diagonalization with overlap
     ethr =  2.35E-08,  avg # of iterations =  3.5

     negative rho (up, down):  1.067E-04 1.064E-04
 
     Magnetic moment per site  (integrated on atomic sphere of radius R)
     atom   1 (R=0.413)  charge=  9.9991  magn=  0.0000

     total cpu time spent up to now is       26.6 secs

     End of self-consistent calculation

 ------ SPIN UP ------------


          k = 0.0000 0.0000 0.0000 ( 63077 PWs)   bands (ev):

   -40.7446 -22.6623 -22.6623 -22.6623  -3.3701  -1.1270  -1.1270  -1.1270
    -1.1220

 ------ SPIN DOWN ----------


          k = 0.0000 0.0000 0.0000 ( 63077 PWs)   bands (ev):

   -40.7450 -22.6628 -22.6628 -22.6628  -3.3701  -1.1275  -1.1275  -1.1275
    -1.1217

     the Fermi energy is    -2.4076 ev

!    total energy              =    -260.12689900 Ry
     total all-electron energy =     -6358.986149 Ry
     estimated scf accuracy    <       0.00000002 Ry
     smearing contrib. (-TS)   =       0.00000000 Ry
     internal energy E=F+TS    =    -260.12689900 Ry

     The total energy is F=E-TS. E is the sum of the following terms:
     one-electron contribution =     -77.83666286 Ry
     hartree contribution      =      37.37272561 Ry
     xc contribution           =     -18.00222680 Ry
     ewald contribution        =     -10.00955451 Ry
     one-center paw contrib.   =    -191.65118043 Ry

     total magnetization       =    -0.00 Bohr mag/cell
     absolute magnetization    =     0.00 Bohr mag/cell

     convergence has been achieved in   6 iterations

     negative rho (up, down):  1.067E-04 1.064E-04

     Forces acting on atoms (cartesian axes, Ry/au):

     atom    1 type  1   force =     0.00000000    0.00000000    0.00000000

     Total force =     0.000000     Total SCF correction =     0.000000


     Computing stress (Cartesian axis) and pressure


     negative rho (up, down):  1.067E-04 1.064E-04
          total   stress  (Ry/bohr**3)                   (kbar)     P=       -0.11
  -0.00000077   0.00000000   0.00000000           -0.11        0.00        0.00
   0.00000000  -0.00000077   0.00000000            0.00       -0.11        0.00
   0.00000000   0.00000000  -0.00000077            0.00        0.00       -0.11


     Writing all to output data dir /root/qe_scratch/atom_Sr.save/ :
     XML data file, charge density, pseudopotentials, collected wavefunctions
 
     init_run     :      8.52s CPU     11.47s WALL (       1 calls)
     electrons    :     13.37s CPU     14.83s WALL (       1 calls)
     forces       :      0.20s CPU      0.22s WALL (       1 calls)
     stress       :      0.38s CPU      0.41s WALL (       1 calls)

     Called by init_run:
     wfcinit      :      0.12s CPU      0.32s WALL (       1 calls)
     potinit      :      7.36s CPU      9.82s WALL (       1 calls)
     hinit0       :      0.32s CPU      0.42s WALL (       1 calls)

     Called by electrons:
     c_bands      :      3.31s CPU      3.32s WALL (       6 calls)
     sum_band     :      1.06s CPU      1.10s WALL (       6 calls)
     v_of_rho     :      0.81s CPU      1.01s WALL (       7 calls)
     newd         :      0.24s CPU      0.32s WALL (       7 calls)
                                        0.32s GPU  (       7 calls)
     PAW_pot      :      6.31s CPU      7.32s WALL (       7 calls)
     mix_rho      :      0.55s CPU      0.62s WALL (       6 calls)

     Called by c_bands:
     init_us_2    :      0.01s CPU      0.01s WALL (      30 calls)
     cegterg      :      3.22s CPU      3.23s WALL (      12 calls)

     Called by *egterg:
     cdiaghg      :      0.06s CPU      0.08s WALL (      73 calls)
                                        0.08s GPU  (      73 calls)
     h_psi        :      0.23s CPU      0.41s WALL (      75 calls)
                                        0.41s GPU  (      75 calls)
     s_psi        :      0.00s CPU      0.00s WALL (      75 calls)
     g_psi        :      0.00s CPU      0.00s WALL (      61 calls)
                                        0.00s GPU  (      61 calls)

     Called by h_psi:
     h_psi:calbec :      0.08s CPU      0.27s WALL (      75 calls)
                                        0.27s GPU  (      75 calls)
     vloc_psi     :      0.11s CPU      0.12s WALL (      75 calls)
                                        0.12s GPU  (      75 calls)
     add_vuspsi   :      0.00s CPU      0.01s WALL (      75 calls)
                                        0.01s GPU  (      75 calls)

     General routines
     calbec       :      0.08s CPU      0.25s WALL (      97 calls)
     fft          :      5.37s CPU      7.19s WALL (     213 calls)
                                        0.06s GPU  (     199 calls)
     ffts         :      2.27s CPU      2.97s WALL (      26 calls)
                                        0.00s GPU  (      12 calls)
     fftw         :      0.01s CPU      0.10s WALL (     162 calls)
                                        0.10s GPU  (     162 calls)
     interpolate  :      7.83s CPU     10.33s WALL (      14 calls)
 
     Parallel routines
 
     PWSCF        :     22.98s CPU     27.64s WALL

 
   This run was terminated on:   8: 9:40   6May2026            

=------------------------------------------------------------------------------=
   JOB DONE.
=------------------------------------------------------------------------------=
Warning: ieee_invalid is signaling
Warning: ieee_divide_by_zero is signaling
Warning: ieee_inexact is signaling
FORTRAN STOP
