--------------------------------------------------------------------------
WARNING: Open MPI tried to bind a process but failed.  This is a
warning only; your job will continue, though performance may
be degraded.

  Local host:        3253031b5b37
  Application name:  /root/qe-7.3.1/bin/pw.x
  Error message:     failed to bind memory
  Location:          ../../../../../orte/mca/rtc/hwloc/rtc_hwloc.c:447

--------------------------------------------------------------------------

     Program PWSCF v.7.3.1 starts on  6May2026 at  8:15:41 

     This program is part of the open-source Quantum ESPRESSO suite
     for quantum simulation of materials; please cite
         "P. Giannozzi et al., J. Phys.:Condens. Matter 21 395502 (2009);
         "P. Giannozzi et al., J. Phys.:Condens. Matter 29 465901 (2017);
         "P. Giannozzi et al., J. Chem. Phys. 152 154105 (2020);
          URL http://www.quantum-espresso.org", 
     in publications or presentations arising from this work. More details at
     http://www.quantum-espresso.org/quote

     Parallel version (MPI & OpenMP), running on       8 processor cores
     Number of MPI processes:                 1
     Threads/MPI process:                     8

     MPI processes distributed on     1 nodes
     88902 MiB available memory on the printing compute node when the environment starts
 
     Reading input from atom_Zr.in

     Current dimensions of program PWSCF are:
     Max number of different atomic species (ntypx) = 10
     Max number of k-points (npk) =  40000
     Max angular momentum in pseudopotentials (lmaxx) =  4
     file Zr.UPF: wavefunction(s)  4S 4P renormalized
     Message from routine setup:
     using ibrav=0 with symmetry is DISCOURAGED, use correct ibrav instead
 
     Subspace diagonalization in iterative solution of the eigenvalue problem:
     a serial algorithm will be used

 
     G-vector sticks info
     --------------------
     sticks:   dense  smooth     PW     G-vecs:    dense   smooth      PW
     Sum       11513    7685   1917               929121   505887   63077
 
     Using Slab Decomposition
 


     bravais-lattice index     =            0
     lattice parameter (alat)  =      28.3459  a.u.
     unit-cell volume          =   22775.6289 (a.u.)^3
     number of atoms/cell      =            1
     number of atomic types    =            1
     number of electrons       =        12.00
     number of Kohn-Sham states=           10
     kinetic-energy cutoff     =      30.0000  Ry
     charge density cutoff     =     180.0000  Ry
     scf convergence threshold =      1.0E-07
     mixing beta               =       0.4000
     number of iterations used =            8  plain     mixing
     Exchange-correlation= SLA  PW   PBX  PBC
                           (   1   4   3   4   0   0   0)

     GPU acceleration is ACTIVE.  1 visible GPUs per MPI rank


     celldm(1)=  28.345892  celldm(2)=   0.000000  celldm(3)=   0.000000
     celldm(4)=   0.000000  celldm(5)=   0.000000  celldm(6)=   0.000000

     crystal axes: (cart. coord. in units of alat)
               a(1) = (   1.000000   0.000000   0.000000 )  
               a(2) = (   0.000000   1.000000   0.000000 )  
               a(3) = (   0.000000   0.000000   1.000000 )  

     reciprocal axes: (cart. coord. in units 2 pi/alat)
               b(1) = (  1.000000  0.000000  0.000000 )  
               b(2) = (  0.000000  1.000000  0.000000 )  
               b(3) = (  0.000000  0.000000  1.000000 )  


     PseudoPot. # 1 for Zr read from file:
     /root/qe_pseudos/Zr.UPF
     MD5 check sum: 02112c41713a0468aff2bb39ef194e36
     Pseudo is Projector augmented-wave + core cor, Zval = 12.0
     Generated using &quot;atomic&quot; code by A. Dal Corso  v.6.2.2
     Shape of augmentation charge: PSQ
     Using radial grid of 1225 points,  6 beta functions with: 
                l(1) =   0
                l(2) =   0
                l(3) =   1
                l(4) =   1
                l(5) =   2
                l(6) =   2
     Q(r) pseudized with 0 coefficients 


     atomic species   valence    mass     pseudopotential
     Zr               12.00    91.22400     Zr( 1.00)

     Starting magnetic structure 
     atomic species   magnetization
     Zr              0.500

     48 Sym. Ops., with inversion, found



   Cartesian axes

     site n.     atom                  positions (alat units)
         1        Zr     tau(   1) = (   0.5000000   0.5000000   0.5000000  )

     number of k points=     1  Methfessel-Paxton smearing, width (Ry)=  0.0100
                       cart. coord. in units 2pi/alat
        k(    1) = (   0.0000000   0.0000000   0.0000000), wk =   1.0000000

     Dense  grid:   929121 G-vectors     FFT dimensions: ( 125, 125, 125)

     Smooth grid:   505887 G-vectors     FFT dimensions: ( 100, 100, 100)

     Estimated max dynamical RAM per process >       3.70 GB
     Generating pointlists ...
     new r_m :   0.4125 (alat units) 11.6927 (a.u.) for type    1

     Initial potential from superposition of free atoms

     starting charge      11.9978, renormalised to      12.0000

     negative rho (up, down):  1.557E-02 5.191E-03
     Starting wfcs are   13 randomized atomic wfcs
     Checking if some PAW data can be deallocated... 

     total cpu time spent up to now is       12.0 secs

     Self-consistent Calculation

     iteration #  1     ecut=    30.00 Ry     beta= 0.40
     Davidson diagonalization with overlap
     ethr =  1.00E-02,  avg # of iterations =  1.0

     negative rho (up, down):  1.336E-02 7.142E-03

     total cpu time spent up to now is       13.9 secs

     total energy              =    -306.62473999 Ry
     estimated scf accuracy    <       0.21035597 Ry

     total magnetization       =     4.00 Bohr mag/cell
     absolute magnetization    =     4.00 Bohr mag/cell

     iteration #  2     ecut=    30.00 Ry     beta= 0.40
     Davidson diagonalization with overlap
     ethr =  1.75E-03,  avg # of iterations =  1.0

     negative rho (up, down):  1.262E-02 1.024E-02

     total cpu time spent up to now is       15.8 secs

     total energy              =    -306.68822009 Ry
     estimated scf accuracy    <       0.06455616 Ry

     total magnetization       =     4.00 Bohr mag/cell
     absolute magnetization    =     4.00 Bohr mag/cell

     iteration #  3     ecut=    30.00 Ry     beta= 0.40
     Davidson diagonalization with overlap
     ethr =  5.38E-04,  avg # of iterations =  2.0

     negative rho (up, down):  1.104E-02 5.519E-02

     total cpu time spent up to now is       17.8 secs

     total energy              =    -306.78475515 Ry
     estimated scf accuracy    <       0.15747672 Ry

     total magnetization       =     2.02 Bohr mag/cell
     absolute magnetization    =     2.02 Bohr mag/cell

     iteration #  4     ecut=    30.00 Ry     beta= 0.40
     Davidson diagonalization with overlap
     ethr =  5.38E-04,  avg # of iterations =  3.0

     negative rho (up, down):  1.071E-02 1.678E-02

     total cpu time spent up to now is       19.8 secs

     total energy              =    -306.73998781 Ry
     estimated scf accuracy    <       0.31832837 Ry

     total magnetization       =     2.00 Bohr mag/cell
     absolute magnetization    =     2.01 Bohr mag/cell

     iteration #  5     ecut=    30.00 Ry     beta= 0.40
     Davidson diagonalization with overlap
     ethr =  5.38E-04,  avg # of iterations =  2.0

     negative rho (up, down):  1.004E-02 1.198E-02

     total cpu time spent up to now is       21.9 secs

     total energy              =    -306.67806973 Ry
     estimated scf accuracy    <       0.20717424 Ry

     total magnetization       =     2.00 Bohr mag/cell
     absolute magnetization    =     2.00 Bohr mag/cell

     iteration #  6     ecut=    30.00 Ry     beta= 0.40
     Davidson diagonalization with overlap
     ethr =  5.38E-04,  avg # of iterations =  2.0

     negative rho (up, down):  9.931E-03 1.231E-02

     total cpu time spent up to now is       23.8 secs

     total energy              =    -306.70583796 Ry
     estimated scf accuracy    <       0.01814728 Ry

     total magnetization       =     1.94 Bohr mag/cell
     absolute magnetization    =     1.95 Bohr mag/cell

     iteration #  7     ecut=    30.00 Ry     beta= 0.40
     Davidson diagonalization with overlap
     ethr =  1.51E-04,  avg # of iterations =  1.0

     negative rho (up, down):  1.087E-02 1.554E-02

     total cpu time spent up to now is       25.9 secs

     total energy              =    -306.71041455 Ry
     estimated scf accuracy    <       0.01629119 Ry

     total magnetization       =     1.94 Bohr mag/cell
     absolute magnetization    =     1.95 Bohr mag/cell

     iteration #  8     ecut=    30.00 Ry     beta= 0.40
     Davidson diagonalization with overlap
     ethr =  1.36E-04,  avg # of iterations =  1.0

     negative rho (up, down):  1.066E-02 1.420E-02

     total cpu time spent up to now is       27.9 secs

     total energy              =    -306.70970902 Ry
     estimated scf accuracy    <       0.02665408 Ry

     total magnetization       =     1.98 Bohr mag/cell
     absolute magnetization    =     1.99 Bohr mag/cell

     iteration #  9     ecut=    30.00 Ry     beta= 0.40
     Davidson diagonalization with overlap
     ethr =  1.36E-04,  avg # of iterations =  1.0

     negative rho (up, down):  1.038E-02 1.141E-02

     total cpu time spent up to now is       29.9 secs

     total energy              =    -306.70248132 Ry
     estimated scf accuracy    <       0.02403957 Ry

     total magnetization       =     1.98 Bohr mag/cell
     absolute magnetization    =     1.98 Bohr mag/cell

     iteration # 10     ecut=    30.00 Ry     beta= 0.40
     Davidson diagonalization with overlap
     ethr =  1.36E-04,  avg # of iterations =  2.0

     negative rho (up, down):  9.863E-03 8.863E-03

     total cpu time spent up to now is       32.1 secs

     total energy              =    -306.69994629 Ry
     estimated scf accuracy    <       0.00639819 Ry

     total magnetization       =     1.93 Bohr mag/cell
     absolute magnetization    =     1.94 Bohr mag/cell

     iteration # 11     ecut=    30.00 Ry     beta= 0.40
     Davidson diagonalization with overlap
     ethr =  5.33E-05,  avg # of iterations =  2.0

     negative rho (up, down):  9.790E-03 8.524E-03

     total cpu time spent up to now is       34.0 secs

     total energy              =    -306.70437959 Ry
     estimated scf accuracy    <       0.01944951 Ry

     total magnetization       =     2.76 Bohr mag/cell
     absolute magnetization    =     2.76 Bohr mag/cell

     iteration # 12     ecut=    30.00 Ry     beta= 0.40
     Davidson diagonalization with overlap
     ethr =  5.33E-05,  avg # of iterations =  1.0

     negative rho (up, down):  1.010E-02 8.908E-03

     total cpu time spent up to now is       36.1 secs

     total energy              =    -306.70327406 Ry
     estimated scf accuracy    <       0.03154957 Ry

     total magnetization       =     3.01 Bohr mag/cell
     absolute magnetization    =     3.01 Bohr mag/cell

     iteration # 13     ecut=    30.00 Ry     beta= 0.40
     Davidson diagonalization with overlap
     ethr =  5.33E-05,  avg # of iterations =  1.0

     negative rho (up, down):  1.024E-02 8.914E-03

     total cpu time spent up to now is       38.1 secs

     total energy              =    -306.70294629 Ry
     estimated scf accuracy    <       0.01606529 Ry

     total magnetization       =     2.71 Bohr mag/cell
     absolute magnetization    =     2.71 Bohr mag/cell

     iteration # 14     ecut=    30.00 Ry     beta= 0.40
     Davidson diagonalization with overlap
     ethr =  5.33E-05,  avg # of iterations =  1.0

     negative rho (up, down):  1.018E-02 8.896E-03

     total cpu time spent up to now is       40.1 secs

     total energy              =    -306.70319527 Ry
     estimated scf accuracy    <       0.00770352 Ry

     total magnetization       =     2.58 Bohr mag/cell
     absolute magnetization    =     2.58 Bohr mag/cell

     iteration # 15     ecut=    30.00 Ry     beta= 0.40
     Davidson diagonalization with overlap
     ethr =  5.33E-05,  avg # of iterations =  1.0

     negative rho (up, down):  1.025E-02 8.911E-03

     total cpu time spent up to now is       42.2 secs

     total energy              =    -306.70297849 Ry
     estimated scf accuracy    <       0.00906497 Ry

     total magnetization       =     2.63 Bohr mag/cell
     absolute magnetization    =     2.63 Bohr mag/cell

     iteration # 16     ecut=    30.00 Ry     beta= 0.40
     Davidson diagonalization with overlap
     ethr =  5.33E-05,  avg # of iterations =  1.0

     negative rho (up, down):  1.005E-02 8.850E-03

     total cpu time spent up to now is       44.2 secs

     total energy              =    -306.70324632 Ry
     estimated scf accuracy    <       0.00579954 Ry

     total magnetization       =     2.54 Bohr mag/cell
     absolute magnetization    =     2.54 Bohr mag/cell

     iteration # 17     ecut=    30.00 Ry     beta= 0.40
     Davidson diagonalization with overlap
     ethr =  4.83E-05,  avg # of iterations =  1.0

     negative rho (up, down):  9.770E-03 8.731E-03

     total cpu time spent up to now is       46.2 secs

     total energy              =    -306.70347096 Ry
     estimated scf accuracy    <       0.00656927 Ry

     total magnetization       =     2.68 Bohr mag/cell
     absolute magnetization    =     2.68 Bohr mag/cell

     iteration # 18     ecut=    30.00 Ry     beta= 0.40
     Davidson diagonalization with overlap
     ethr =  4.83E-05,  avg # of iterations =  1.5

     negative rho (up, down):  9.271E-03 8.509E-03

     total cpu time spent up to now is       48.3 secs

     total energy              =    -306.70302267 Ry
     estimated scf accuracy    <       0.00634627 Ry

     total magnetization       =     2.89 Bohr mag/cell
     absolute magnetization    =     2.89 Bohr mag/cell

     iteration # 19     ecut=    30.00 Ry     beta= 0.40
     Davidson diagonalization with overlap
     ethr =  4.83E-05,  avg # of iterations =  2.0

     negative rho (up, down):  1.007E-02 8.825E-03

     total cpu time spent up to now is       50.3 secs

     total energy              =    -306.70001753 Ry
     estimated scf accuracy    <       0.00710233 Ry

     total magnetization       =     3.47 Bohr mag/cell
     absolute magnetization    =     3.47 Bohr mag/cell

     iteration # 20     ecut=    30.00 Ry     beta= 0.40
     Davidson diagonalization with overlap
     ethr =  4.83E-05,  avg # of iterations =  2.0

     negative rho (up, down):  1.007E-02 8.693E-03

     total cpu time spent up to now is       52.4 secs

     total energy              =    -306.70307304 Ry
     estimated scf accuracy    <       0.00003460 Ry

     total magnetization       =     2.41 Bohr mag/cell
     absolute magnetization    =     2.41 Bohr mag/cell

     iteration # 21     ecut=    30.00 Ry     beta= 0.40
     Davidson diagonalization with overlap
     ethr =  2.88E-07,  avg # of iterations =  4.5

     negative rho (up, down):  9.894E-03 8.985E-03

     total cpu time spent up to now is       54.7 secs

     total energy              =    -306.70314666 Ry
     estimated scf accuracy    <       0.00075840 Ry

     total magnetization       =     2.47 Bohr mag/cell
     absolute magnetization    =     2.48 Bohr mag/cell

     iteration # 22     ecut=    30.00 Ry     beta= 0.40
     Davidson diagonalization with overlap
     ethr =  2.88E-07,  avg # of iterations =  5.0

     negative rho (up, down):  1.007E-02 9.055E-03

     total cpu time spent up to now is       57.3 secs

     total energy              =    -306.70369024 Ry
     estimated scf accuracy    <       0.00025400 Ry

     total magnetization       =     2.70 Bohr mag/cell
     absolute magnetization    =     2.70 Bohr mag/cell

     iteration # 23     ecut=    30.00 Ry     beta= 0.40
     Davidson diagonalization with overlap
     ethr =  2.88E-07,  avg # of iterations =  2.0

     negative rho (up, down):  1.035E-02 8.733E-03

     total cpu time spent up to now is       59.5 secs

     total energy              =    -306.69908876 Ry
     estimated scf accuracy    <       0.00027660 Ry

     total magnetization       =     2.66 Bohr mag/cell
     absolute magnetization    =     2.66 Bohr mag/cell

     iteration # 24     ecut=    30.00 Ry     beta= 0.40
     Davidson diagonalization with overlap
     ethr =  2.88E-07,  avg # of iterations =  6.0

     negative rho (up, down):  9.359E-03 8.734E-03

     total cpu time spent up to now is       61.7 secs

     total energy              =    -306.69676213 Ry
     estimated scf accuracy    <       0.00284057 Ry

     total magnetization       =     2.23 Bohr mag/cell
     absolute magnetization    =     2.24 Bohr mag/cell

     iteration # 25     ecut=    30.00 Ry     beta= 0.40
     Davidson diagonalization with overlap
     ethr =  2.88E-07,  avg # of iterations =  7.0

     negative rho (up, down):  9.439E-03 8.659E-03

     total cpu time spent up to now is       63.9 secs

     total energy              =    -306.70484790 Ry
     estimated scf accuracy    <       0.00650025 Ry

     total magnetization       =     3.56 Bohr mag/cell
     absolute magnetization    =     3.56 Bohr mag/cell

     iteration # 26     ecut=    30.00 Ry     beta= 0.40
     Davidson diagonalization with overlap
     ethr =  2.88E-07,  avg # of iterations =  4.0

     negative rho (up, down):  9.476E-03 9.508E-03

     total cpu time spent up to now is       66.2 secs

     total energy              =    -306.70487625 Ry
     estimated scf accuracy    <       0.00670518 Ry

     total magnetization       =     3.44 Bohr mag/cell
     absolute magnetization    =     3.44 Bohr mag/cell

     iteration # 27     ecut=    30.00 Ry     beta= 0.40
     Davidson diagonalization with overlap
     ethr =  2.88E-07,  avg # of iterations =  5.0

     negative rho (up, down):  9.239E-03 8.784E-03

     total cpu time spent up to now is       68.4 secs

     total energy              =    -306.70551219 Ry
     estimated scf accuracy    <       0.00343631 Ry

     total magnetization       =     3.63 Bohr mag/cell
     absolute magnetization    =     3.63 Bohr mag/cell

     iteration # 28     ecut=    30.00 Ry     beta= 0.40
     Davidson diagonalization with overlap
     ethr =  2.88E-07,  avg # of iterations =  7.0

     negative rho (up, down):  9.048E-03 8.621E-03

     total cpu time spent up to now is       70.6 secs

     total energy              =    -306.70678455 Ry
     estimated scf accuracy    <       0.00041737 Ry

     total magnetization       =     3.82 Bohr mag/cell
     absolute magnetization    =     3.82 Bohr mag/cell

     iteration # 29     ecut=    30.00 Ry     beta= 0.40
     Davidson diagonalization with overlap
     ethr =  2.88E-07,  avg # of iterations =  5.0

     negative rho (up, down):  8.972E-03 2.165E-02

     total cpu time spent up to now is       73.0 secs

     total energy              =    -306.72867727 Ry
     estimated scf accuracy    <       0.00152010 Ry

     total magnetization       =     4.07 Bohr mag/cell
     absolute magnetization    =     4.07 Bohr mag/cell

     iteration # 30     ecut=    30.00 Ry     beta= 0.40
     Davidson diagonalization with overlap
     ethr =  2.88E-07,  avg # of iterations =  8.0

     negative rho (up, down):  8.823E-03 9.096E-02

     total cpu time spent up to now is       75.0 secs

     total energy              =    -306.73199376 Ry
     estimated scf accuracy    <       0.00091209 Ry

     total magnetization       =     4.00 Bohr mag/cell
     absolute magnetization    =     4.00 Bohr mag/cell

     iteration # 31     ecut=    30.00 Ry     beta= 0.40
     Davidson diagonalization with overlap
     ethr =  2.88E-07,  avg # of iterations =  7.0

     negative rho (up, down):  8.854E-03 1.531E-02

     total cpu time spent up to now is       76.9 secs

     total energy              =    -306.72538264 Ry
     estimated scf accuracy    <       0.00438666 Ry

     total magnetization       =     4.00 Bohr mag/cell
     absolute magnetization    =     4.00 Bohr mag/cell

     iteration # 32     ecut=    30.00 Ry     beta= 0.40
     Davidson diagonalization with overlap
     ethr =  2.88E-07,  avg # of iterations =  7.5

     negative rho (up, down):  8.706E-03 1.007E-01

     total cpu time spent up to now is       78.9 secs

     total energy              =    -306.73392610 Ry
     estimated scf accuracy    <       0.00044196 Ry

     total magnetization       =     4.00 Bohr mag/cell
     absolute magnetization    =     4.00 Bohr mag/cell

     iteration # 33     ecut=    30.00 Ry     beta= 0.40
     Davidson diagonalization with overlap
     ethr =  2.88E-07,  avg # of iterations =  8.0

     negative rho (up, down):  8.688E-03 7.178E-02

     total cpu time spent up to now is       81.0 secs

     total energy              =    -306.73648535 Ry
     estimated scf accuracy    <       0.00364970 Ry

     total magnetization       =     4.02 Bohr mag/cell
     absolute magnetization    =     4.02 Bohr mag/cell

     iteration # 34     ecut=    30.00 Ry     beta= 0.40
     Davidson diagonalization with overlap
     ethr =  2.88E-07,  avg # of iterations =  4.0

     negative rho (up, down):  8.823E-03 9.776E-03

     total cpu time spent up to now is       82.9 secs

     total energy              =    -306.70432699 Ry
     estimated scf accuracy    <       0.00212433 Ry

     total magnetization       =     4.03 Bohr mag/cell
     absolute magnetization    =     4.03 Bohr mag/cell

     iteration # 35     ecut=    30.00 Ry     beta= 0.40
     Davidson diagonalization with overlap
     ethr =  2.88E-07,  avg # of iterations =  9.0

     negative rho (up, down):  8.688E-03 1.864E-02

     total cpu time spent up to now is       85.0 secs

     total energy              =    -306.72347124 Ry
     estimated scf accuracy    <       0.00694037 Ry

     total magnetization       =     4.07 Bohr mag/cell
     absolute magnetization    =     4.07 Bohr mag/cell

     iteration # 36     ecut=    30.00 Ry     beta= 0.40
     Davidson diagonalization with overlap
     ethr =  2.88E-07,  avg # of iterations =  7.5

     negative rho (up, down):  8.837E-03 1.070E-02

     total cpu time spent up to now is       87.2 secs

     total energy              =    -306.70841978 Ry
     estimated scf accuracy    <       0.00001725 Ry

     total magnetization       =     4.00 Bohr mag/cell
     absolute magnetization    =     4.00 Bohr mag/cell

     iteration # 37     ecut=    30.00 Ry     beta= 0.40
     Davidson diagonalization with overlap
     ethr =  1.44E-07,  avg # of iterations =  7.0

     negative rho (up, down):  8.769E-03 1.531E-02

     total cpu time spent up to now is       89.2 secs

     total energy              =    -306.71507304 Ry
     estimated scf accuracy    <       0.00145175 Ry

     total magnetization       =     4.01 Bohr mag/cell
     absolute magnetization    =     4.01 Bohr mag/cell

     iteration # 38     ecut=    30.00 Ry     beta= 0.40
     Davidson diagonalization with overlap
     ethr =  1.44E-07,  avg # of iterations =  5.5

     negative rho (up, down):  8.767E-03 1.492E-02

     total cpu time spent up to now is       91.5 secs

     total energy              =    -306.71496915 Ry
     estimated scf accuracy    <       0.00002643 Ry

     total magnetization       =     4.00 Bohr mag/cell
     absolute magnetization    =     4.00 Bohr mag/cell

     iteration # 39     ecut=    30.00 Ry     beta= 0.40
     Davidson diagonalization with overlap
     ethr =  1.44E-07,  avg # of iterations =  1.5

     negative rho (up, down):  8.764E-03 1.478E-02

     total cpu time spent up to now is       93.4 secs

     total energy              =    -306.71476799 Ry
     estimated scf accuracy    <       0.00001326 Ry

     total magnetization       =     4.00 Bohr mag/cell
     absolute magnetization    =     4.00 Bohr mag/cell

     iteration # 40     ecut=    30.00 Ry     beta= 0.40
     Davidson diagonalization with overlap
     ethr =  1.11E-07,  avg # of iterations =  1.0

     negative rho (up, down):  8.746E-03 1.460E-02

     total cpu time spent up to now is       95.5 secs

     total energy              =    -306.71467135 Ry
     estimated scf accuracy    <       0.00001025 Ry

     total magnetization       =     4.00 Bohr mag/cell
     absolute magnetization    =     4.00 Bohr mag/cell

     iteration # 41     ecut=    30.00 Ry     beta= 0.40
     Davidson diagonalization with overlap
     ethr =  8.55E-08,  avg # of iterations =  1.5

     negative rho (up, down):  8.746E-03 1.442E-02

     total cpu time spent up to now is       97.5 secs

     total energy              =    -306.71448414 Ry
     estimated scf accuracy    <       0.00000320 Ry

     total magnetization       =     4.00 Bohr mag/cell
     absolute magnetization    =     4.00 Bohr mag/cell

     iteration # 42     ecut=    30.00 Ry     beta= 0.40
     Davidson diagonalization with overlap
     ethr =  2.66E-08,  avg # of iterations =  2.0

     negative rho (up, down):  8.752E-03 1.436E-02

     total cpu time spent up to now is       99.6 secs

     total energy              =    -306.71433280 Ry
     estimated scf accuracy    <       0.00000069 Ry

     total magnetization       =     4.00 Bohr mag/cell
     absolute magnetization    =     4.00 Bohr mag/cell

     iteration # 43     ecut=    30.00 Ry     beta= 0.40
     Davidson diagonalization with overlap
     ethr =  5.73E-09,  avg # of iterations =  2.0

     negative rho (up, down):  8.740E-03 1.412E-02

     total cpu time spent up to now is      101.7 secs

     total energy              =    -306.71403239 Ry
     estimated scf accuracy    <       0.00000040 Ry

     total magnetization       =     4.00 Bohr mag/cell
     absolute magnetization    =     4.00 Bohr mag/cell

     iteration # 44     ecut=    30.00 Ry     beta= 0.40
     Davidson diagonalization with overlap
     ethr =  3.34E-09,  avg # of iterations =  2.5

     negative rho (up, down):  8.731E-03 1.428E-02
 
     Magnetic moment per site  (integrated on atomic sphere of radius R)
     atom   1 (R=0.413)  charge= 11.9997  magn=  3.9998

     total cpu time spent up to now is      103.4 secs

     End of self-consistent calculation

 ------ SPIN UP ------------


          k = 0.0000 0.0000 0.0000 ( 63077 PWs)   bands (ev):

   -52.5733 -30.7577 -30.7577 -30.7577  -4.2466  -2.7650  -2.7650  -2.7650
    -2.7650  -2.7650

 ------ SPIN DOWN ----------


          k = 0.0000 0.0000 0.0000 ( 63077 PWs)   bands (ev):

   -51.3088 -29.2286 -29.2286 -29.2286  -2.2196  -0.7085  -0.7085  -0.7034
    -0.7034  -0.7034

     the Fermi energy is    -2.7488 ev

!    total energy              =    -306.71421318 Ry
     total all-electron energy =     -7197.103186 Ry
     estimated scf accuracy    <       0.00000008 Ry
     smearing contrib. (-TS)   =      -0.00675579 Ry
     internal energy E=F+TS    =    -306.70745739 Ry

     The total energy is F=E-TS. E is the sum of the following terms:
     one-electron contribution =    -125.53201441 Ry
     hartree contribution      =      61.01355402 Ry
     xc contribution           =     -17.79909982 Ry
     ewald contribution        =     -14.41375850 Ry
     one-center paw contrib.   =    -209.97613868 Ry

     total magnetization       =     4.00 Bohr mag/cell
     absolute magnetization    =     4.00 Bohr mag/cell

     convergence has been achieved in  44 iterations

     negative rho (up, down):  8.731E-03 1.428E-02

     Forces acting on atoms (cartesian axes, Ry/au):

     atom    1 type  1   force =     0.00000000    0.00000000    0.00000000

     Total force =     0.000000     Total SCF correction =     0.000000


     Computing stress (Cartesian axis) and pressure


     negative rho (up, down):  8.731E-03 1.428E-02
          total   stress  (Ry/bohr**3)                   (kbar)     P=       -0.84
  -0.00000573   0.00000000   0.00000000           -0.84        0.00        0.00
   0.00000000  -0.00000573   0.00000000            0.00       -0.84        0.00
   0.00000000   0.00000000  -0.00000573            0.00        0.00       -0.84


     Writing all to output data dir /root/qe_scratch/atom_Zr.save/ :
     XML data file, charge density, pseudopotentials, collected wavefunctions
 
     init_run     :      8.45s CPU     11.63s WALL (       1 calls)
     electrons    :     81.18s CPU     91.50s WALL (       1 calls)
     forces       :      0.20s CPU      0.22s WALL (       1 calls)
     stress       :      0.38s CPU      0.41s WALL (       1 calls)

     Called by init_run:
     wfcinit      :      0.12s CPU      0.33s WALL (       1 calls)
     potinit      :      7.29s CPU      9.98s WALL (       1 calls)
     hinit0       :      0.33s CPU      0.43s WALL (       1 calls)

     Called by electrons:
     c_bands      :      5.08s CPU      5.12s WALL (      44 calls)
     sum_band     :      7.84s CPU      7.91s WALL (      44 calls)
     v_of_rho     :      4.83s CPU      6.10s WALL (      45 calls)
     newd         :      1.29s CPU      1.39s WALL (      45 calls)
                                        1.39s GPU  (      45 calls)
     PAW_pot      :     39.74s CPU     46.19s WALL (      45 calls)
     mix_rho      :      8.18s CPU      8.40s WALL (      44 calls)

     Called by c_bands:
     init_us_2    :      0.05s CPU      0.05s WALL (     182 calls)
     cegterg      :      4.43s CPU      4.45s WALL (      88 calls)

     Called by *egterg:
     cdiaghg      :      0.25s CPU      0.28s WALL (     386 calls)
                                        0.28s GPU  (     386 calls)
     h_psi        :      1.26s CPU      1.44s WALL (     388 calls)
                                        1.44s GPU  (     388 calls)
     s_psi        :      0.02s CPU      0.02s WALL (     388 calls)
     g_psi        :      0.00s CPU      0.01s WALL (     298 calls)
                                        0.01s GPU  (     298 calls)

     Called by h_psi:
     h_psi:calbec :      0.10s CPU      0.44s WALL (     388 calls)
                                        0.44s GPU  (     388 calls)
     vloc_psi     :      0.86s CPU      0.87s WALL (     388 calls)
                                        0.87s GPU  (     388 calls)
     add_vuspsi   :      0.02s CPU      0.09s WALL (     388 calls)
                                        0.09s GPU  (     388 calls)

     General routines
     calbec       :      0.10s CPU      0.26s WALL (     486 calls)
     fft          :     11.02s CPU     14.32s WALL (    1163 calls)
                                        0.31s GPU  (    1073 calls)
     ffts         :      5.00s CPU      6.67s WALL (     178 calls)
                                        0.01s GPU  (      88 calls)
     fftw         :      0.02s CPU      0.79s WALL (     864 calls)
                                        0.78s GPU  (     864 calls)
     interpolate  :     17.21s CPU     22.02s WALL (      90 calls)
 
     Parallel routines
 
     PWSCF        :   1m30.73s CPU   1m44.51s WALL

 
   This run was terminated on:   8:17:26   6May2026            

=------------------------------------------------------------------------------=
   JOB DONE.
=------------------------------------------------------------------------------=
Warning: ieee_invalid is signaling
Warning: ieee_divide_by_zero is signaling
Warning: ieee_inexact is signaling
FORTRAN STOP
