--------------------------------------------------------------------------
WARNING: Open MPI tried to bind a process but failed.  This is a
warning only; your job will continue, though performance may
be degraded.

  Local host:        3253031b5b37
  Application name:  /root/qe-7.3.1/bin/pw.x
  Error message:     failed to bind memory
  Location:          ../../../../../orte/mca/rtc/hwloc/rtc_hwloc.c:447

--------------------------------------------------------------------------

     Program PWSCF v.7.3.1 starts on  6May2026 at  8: 7:58 

     This program is part of the open-source Quantum ESPRESSO suite
     for quantum simulation of materials; please cite
         "P. Giannozzi et al., J. Phys.:Condens. Matter 21 395502 (2009);
         "P. Giannozzi et al., J. Phys.:Condens. Matter 29 465901 (2017);
         "P. Giannozzi et al., J. Chem. Phys. 152 154105 (2020);
          URL http://www.quantum-espresso.org", 
     in publications or presentations arising from this work. More details at
     http://www.quantum-espresso.org/quote

     Parallel version (MPI & OpenMP), running on       8 processor cores
     Number of MPI processes:                 1
     Threads/MPI process:                     8

     MPI processes distributed on     1 nodes
     89712 MiB available memory on the printing compute node when the environment starts
 
     Reading input from atom_Se.in

     Current dimensions of program PWSCF are:
     Max number of different atomic species (ntypx) = 10
     Max number of k-points (npk) =  40000
     Max angular momentum in pseudopotentials (lmaxx) =  4
     Message from routine setup:
     using ibrav=0 with symmetry is DISCOURAGED, use correct ibrav instead
 
     Subspace diagonalization in iterative solution of the eigenvalue problem:
     a serial algorithm will be used

 
     G-vector sticks info
     --------------------
     sticks:   dense  smooth     PW     G-vecs:    dense   smooth      PW
     Sum       11513    7685   1917               929121   505887   63077
 
     Using Slab Decomposition
 


     bravais-lattice index     =            0
     lattice parameter (alat)  =      28.3459  a.u.
     unit-cell volume          =   22775.6289 (a.u.)^3
     number of atoms/cell      =            1
     number of atomic types    =            1
     number of electrons       =         6.00
     number of Kohn-Sham states=            7
     kinetic-energy cutoff     =      30.0000  Ry
     charge density cutoff     =     180.0000  Ry
     scf convergence threshold =      1.0E-07
     mixing beta               =       0.4000
     number of iterations used =            8  plain     mixing
     Exchange-correlation= PBE
                           (   1   4   3   4   0   0   0)

     GPU acceleration is ACTIVE.  1 visible GPUs per MPI rank


     celldm(1)=  28.345892  celldm(2)=   0.000000  celldm(3)=   0.000000
     celldm(4)=   0.000000  celldm(5)=   0.000000  celldm(6)=   0.000000

     crystal axes: (cart. coord. in units of alat)
               a(1) = (   1.000000   0.000000   0.000000 )  
               a(2) = (   0.000000   1.000000   0.000000 )  
               a(3) = (   0.000000   0.000000   1.000000 )  

     reciprocal axes: (cart. coord. in units 2 pi/alat)
               b(1) = (  1.000000  0.000000  0.000000 )  
               b(2) = (  0.000000  1.000000  0.000000 )  
               b(3) = (  0.000000  0.000000  1.000000 )  


     PseudoPot. # 1 for Se read from file:
     /root/qe_pseudos/Se.UPF
     MD5 check sum: 8e2a6847b5cb9faee9497ebb573e71ea
     Pseudo is Ultrasoft + core correction, Zval =  6.0
     Generated using &quot;atomic&quot; code by A. Dal Corso  v.6.3
     Using radial grid of 1211 points,  4 beta functions with: 
                l(1) =   0
                l(2) =   0
                l(3) =   1
                l(4) =   1
     Q(r) pseudized with 0 coefficients 


     atomic species   valence    mass     pseudopotential
     Se                6.00    78.97100     Se( 1.00)

     Starting magnetic structure 
     atomic species   magnetization
     Se              0.500

     48 Sym. Ops., with inversion, found



   Cartesian axes

     site n.     atom                  positions (alat units)
         1        Se     tau(   1) = (   0.5000000   0.5000000   0.5000000  )

     number of k points=     1  Methfessel-Paxton smearing, width (Ry)=  0.0100
                       cart. coord. in units 2pi/alat
        k(    1) = (   0.0000000   0.0000000   0.0000000), wk =   1.0000000

     Dense  grid:   929121 G-vectors     FFT dimensions: ( 125, 125, 125)

     Smooth grid:   505887 G-vectors     FFT dimensions: ( 100, 100, 100)

     Estimated max dynamical RAM per process >       1.60 GB
     Generating pointlists ...
     new r_m :   0.4125 (alat units) 11.6927 (a.u.) for type    1

     Initial potential from superposition of free atoms

     starting charge       5.9999, renormalised to       6.0000

     negative rho (up, down):  1.755E-03 5.851E-04
     Starting wfcs are    4 randomized atomic wfcs +    3 random wfcs

     total cpu time spent up to now is       10.8 secs

     Self-consistent Calculation

     iteration #  1     ecut=    30.00 Ry     beta= 0.40
     Davidson diagonalization with overlap
     ethr =  1.00E-02,  avg # of iterations =  6.0

     Threshold (ethr) on eigenvalues was too large:
     Diagonalizing with lowered threshold

     Davidson diagonalization with overlap
     ethr =  7.56E-05,  avg # of iterations = 12.5

     negative rho (up, down):  1.714E-03 6.964E-04

     total cpu time spent up to now is       12.9 secs

     total energy              =     -20.61650727 Ry
     estimated scf accuracy    <       0.00442708 Ry

     total magnetization       =     2.00 Bohr mag/cell
     absolute magnetization    =     2.00 Bohr mag/cell

     iteration #  2     ecut=    30.00 Ry     beta= 0.40
     Davidson diagonalization with overlap
     ethr =  7.38E-05,  avg # of iterations =  1.0

     negative rho (up, down):  1.772E-03 7.619E-04

     total cpu time spent up to now is       13.7 secs

     total energy              =     -20.62263883 Ry
     estimated scf accuracy    <       0.00162761 Ry

     total magnetization       =     2.00 Bohr mag/cell
     absolute magnetization    =     2.00 Bohr mag/cell

     iteration #  3     ecut=    30.00 Ry     beta= 0.40
     Davidson diagonalization with overlap
     ethr =  2.71E-05,  avg # of iterations =  2.0

     negative rho (up, down):  1.722E-03 7.853E-04

     total cpu time spent up to now is       14.6 secs

     total energy              =     -20.62301631 Ry
     estimated scf accuracy    <       0.00007508 Ry

     total magnetization       =     2.00 Bohr mag/cell
     absolute magnetization    =     2.00 Bohr mag/cell

     iteration #  4     ecut=    30.00 Ry     beta= 0.40
     Davidson diagonalization with overlap
     c_bands:  1 eigenvalues not converged
     ethr =  1.25E-06,  avg # of iterations = 14.0

     negative rho (up, down):  1.652E-03 8.340E-04

     total cpu time spent up to now is       16.8 secs

     total energy              =     -20.62238303 Ry
     estimated scf accuracy    <       0.00312315 Ry

     total magnetization       =     2.00 Bohr mag/cell
     absolute magnetization    =     2.00 Bohr mag/cell

     iteration #  5     ecut=    30.00 Ry     beta= 0.40
     Davidson diagonalization with overlap
     ethr =  1.25E-06,  avg # of iterations =  8.0

     negative rho (up, down):  1.630E-03 8.626E-04

     total cpu time spent up to now is       18.5 secs

     total energy              =     -20.62303329 Ry
     estimated scf accuracy    <       0.00000418 Ry

     total magnetization       =     2.00 Bohr mag/cell
     absolute magnetization    =     2.00 Bohr mag/cell

     iteration #  6     ecut=    30.00 Ry     beta= 0.40
     Davidson diagonalization with overlap
     ethr =  6.96E-08,  avg # of iterations =  2.0

     negative rho (up, down):  1.623E-03 8.760E-04

     total cpu time spent up to now is       19.4 secs

     total energy              =     -20.62303440 Ry
     estimated scf accuracy    <       0.00000203 Ry

     total magnetization       =     2.00 Bohr mag/cell
     absolute magnetization    =     2.00 Bohr mag/cell

     iteration #  7     ecut=    30.00 Ry     beta= 0.40
     Davidson diagonalization with overlap
     ethr =  3.38E-08,  avg # of iterations =  1.5

     negative rho (up, down):  1.616E-03 8.951E-04
 
     Magnetic moment per site  (integrated on atomic sphere of radius R)
     atom   1 (R=0.413)  charge=  6.0000  magn=  2.0000

     total cpu time spent up to now is       20.1 secs

     End of self-consistent calculation

 ------ SPIN UP ------------


          k = 0.0000 0.0000 0.0000 ( 63077 PWs)   bands (ev):

   -17.8343  -7.0427  -7.0427  -7.0427  -0.5916   0.0409   0.3048

 ------ SPIN DOWN ----------


          k = 0.0000 0.0000 0.0000 ( 63077 PWs)   bands (ev):

   -16.2390  -5.5016  -5.5016  -5.5016  -0.4180   0.1564   0.3718

     the Fermi energy is    -5.5290 ev

!    total energy              =     -20.62303458 Ry
     estimated scf accuracy    <       0.00000005 Ry
     smearing contrib. (-TS)   =      -0.00373359 Ry
     internal energy E=F+TS    =     -20.61930099 Ry

     The total energy is F=E-TS. E is the sum of the following terms:
     one-electron contribution =     -22.58386672 Ry
     hartree contribution      =      11.77999659 Ry
     xc contribution           =      -6.21199121 Ry
     ewald contribution        =      -3.60343966 Ry

     total magnetization       =     2.00 Bohr mag/cell
     absolute magnetization    =     2.00 Bohr mag/cell

     convergence has been achieved in   7 iterations

     negative rho (up, down):  1.616E-03 8.951E-04

     Forces acting on atoms (cartesian axes, Ry/au):

     atom    1 type  1   force =     0.00000000    0.00000000    0.00000000

     Total force =     0.000000     Total SCF correction =     0.000000


     Computing stress (Cartesian axis) and pressure


     negative rho (up, down):  1.616E-03 8.951E-04
          total   stress  (Ry/bohr**3)                   (kbar)     P=       -0.00
  -0.00000002   0.00000000   0.00000000           -0.00        0.00        0.00
   0.00000000  -0.00000002   0.00000000            0.00       -0.00        0.00
   0.00000000   0.00000000  -0.00000002            0.00        0.00       -0.00


     Writing all to output data dir /root/qe_scratch/atom_Se.save/ :
     XML data file, charge density, pseudopotentials, collected wavefunctions
 
     init_run     :      7.67s CPU     10.59s WALL (       1 calls)
     electrons    :      8.61s CPU      9.43s WALL (       1 calls)
     forces       :      0.15s CPU      0.20s WALL (       1 calls)
     stress       :      0.20s CPU      0.22s WALL (       1 calls)

     Called by init_run:
     wfcinit      :      0.13s CPU      0.34s WALL (       1 calls)
     potinit      :      6.57s CPU      9.01s WALL (       1 calls)
     hinit0       :      0.28s CPU      0.37s WALL (       1 calls)

     Called by electrons:
     c_bands      :      3.42s CPU      3.44s WALL (       8 calls)
     sum_band     :      1.07s CPU      1.10s WALL (       8 calls)
     v_of_rho     :      0.87s CPU      1.12s WALL (       8 calls)
     newd         :      0.15s CPU      0.22s WALL (       8 calls)
                                        0.22s GPU  (       8 calls)
     mix_rho      :      0.70s CPU      0.81s WALL (       8 calls)

     Called by c_bands:
     init_us_2    :      0.01s CPU      0.01s WALL (      38 calls)
     cegterg      :      3.34s CPU      3.35s WALL (      16 calls)

     Called by *egterg:
     cdiaghg      :      0.07s CPU      0.09s WALL (     108 calls)
                                        0.09s GPU  (     108 calls)
     h_psi        :      0.29s CPU      0.47s WALL (     112 calls)
                                        0.47s GPU  (     112 calls)
     s_psi        :      0.01s CPU      0.01s WALL (     112 calls)
     g_psi        :      0.00s CPU      0.00s WALL (      94 calls)
                                        0.00s GPU  (      94 calls)

     Called by h_psi:
     h_psi:calbec :      0.10s CPU      0.31s WALL (     112 calls)
                                        0.31s GPU  (     112 calls)
     vloc_psi     :      0.13s CPU      0.14s WALL (     112 calls)
                                        0.14s GPU  (     112 calls)
     add_vuspsi   :      0.01s CPU      0.01s WALL (     112 calls)
                                        0.01s GPU  (     112 calls)

     General routines
     calbec       :      0.10s CPU      0.27s WALL (     138 calls)
     fft          :      5.46s CPU      7.42s WALL (     240 calls)
                                        0.06s GPU  (     224 calls)
     ffts         :      2.54s CPU      3.35s WALL (      32 calls)
                                        0.00s GPU  (      16 calls)
     fftw         :      0.01s CPU      0.12s WALL (     240 calls)
                                        0.12s GPU  (     240 calls)
     interpolate  :      8.21s CPU     10.97s WALL (      16 calls)
 
     Parallel routines
 
     PWSCF        :     16.97s CPU     20.92s WALL

 
   This run was terminated on:   8: 8:19   6May2026            

=------------------------------------------------------------------------------=
   JOB DONE.
=------------------------------------------------------------------------------=
Warning: ieee_invalid is signaling
Warning: ieee_divide_by_zero is signaling
Warning: ieee_inexact is signaling
FORTRAN STOP
