--------------------------------------------------------------------------
WARNING: Open MPI tried to bind a process but failed.  This is a
warning only; your job will continue, though performance may
be degraded.

  Local host:        3253031b5b37
  Application name:  /root/qe-7.3.1/bin/pw.x
  Error message:     failed to bind memory
  Location:          ../../../../../orte/mca/rtc/hwloc/rtc_hwloc.c:447

--------------------------------------------------------------------------

     Program PWSCF v.7.3.1 starts on  6May2026 at  8: 0:18 

     This program is part of the open-source Quantum ESPRESSO suite
     for quantum simulation of materials; please cite
         "P. Giannozzi et al., J. Phys.:Condens. Matter 21 395502 (2009);
         "P. Giannozzi et al., J. Phys.:Condens. Matter 29 465901 (2017);
         "P. Giannozzi et al., J. Chem. Phys. 152 154105 (2020);
          URL http://www.quantum-espresso.org", 
     in publications or presentations arising from this work. More details at
     http://www.quantum-espresso.org/quote

     Parallel version (MPI & OpenMP), running on       8 processor cores
     Number of MPI processes:                 1
     Threads/MPI process:                     8

     MPI processes distributed on     1 nodes
     90161 MiB available memory on the printing compute node when the environment starts
 
     Reading input from atom_Nb.in

     Current dimensions of program PWSCF are:
     Max number of different atomic species (ntypx) = 10
     Max number of k-points (npk) =  40000
     Max angular momentum in pseudopotentials (lmaxx) =  4
     file Nb.UPF: wavefunction(s)  4S 4P 4D renormalized
     Message from routine setup:
     using ibrav=0 with symmetry is DISCOURAGED, use correct ibrav instead
 
     Subspace diagonalization in iterative solution of the eigenvalue problem:
     a serial algorithm will be used

 
     G-vector sticks info
     --------------------
     sticks:   dense  smooth     PW     G-vecs:    dense   smooth      PW
     Sum       11513    7685   1917               929121   505887   63077
 
     Using Slab Decomposition
 


     bravais-lattice index     =            0
     lattice parameter (alat)  =      28.3459  a.u.
     unit-cell volume          =   22775.6289 (a.u.)^3
     number of atoms/cell      =            1
     number of atomic types    =            1
     number of electrons       =        13.00
     number of Kohn-Sham states=           11
     kinetic-energy cutoff     =      30.0000  Ry
     charge density cutoff     =     180.0000  Ry
     scf convergence threshold =      1.0E-07
     mixing beta               =       0.4000
     number of iterations used =            8  plain     mixing
     Exchange-correlation= SLA  PW   PBX  PBC
                           (   1   4   3   4   0   0   0)

     GPU acceleration is ACTIVE.  1 visible GPUs per MPI rank


     celldm(1)=  28.345892  celldm(2)=   0.000000  celldm(3)=   0.000000
     celldm(4)=   0.000000  celldm(5)=   0.000000  celldm(6)=   0.000000

     crystal axes: (cart. coord. in units of alat)
               a(1) = (   1.000000   0.000000   0.000000 )  
               a(2) = (   0.000000   1.000000   0.000000 )  
               a(3) = (   0.000000   0.000000   1.000000 )  

     reciprocal axes: (cart. coord. in units 2 pi/alat)
               b(1) = (  1.000000  0.000000  0.000000 )  
               b(2) = (  0.000000  1.000000  0.000000 )  
               b(3) = (  0.000000  0.000000  1.000000 )  


     PseudoPot. # 1 for Nb read from file:
     /root/qe_pseudos/Nb.UPF
     MD5 check sum: dcedcbb129af9a7271e4748e5febedb1
     Pseudo is Projector augmented-wave + core cor, Zval = 13.0
     Generated using &quot;atomic&quot; code by A. Dal Corso  v.6.2.2
     Shape of augmentation charge: PSQ
     Using radial grid of 1227 points,  6 beta functions with: 
                l(1) =   0
                l(2) =   0
                l(3) =   1
                l(4) =   1
                l(5) =   2
                l(6) =   2
     Q(r) pseudized with 0 coefficients 


     atomic species   valence    mass     pseudopotential
     Nb               13.00    92.90640     Nb( 1.00)

     Starting magnetic structure 
     atomic species   magnetization
     Nb              0.500

     48 Sym. Ops., with inversion, found



   Cartesian axes

     site n.     atom                  positions (alat units)
         1        Nb     tau(   1) = (   0.5000000   0.5000000   0.5000000  )

     number of k points=     1  Methfessel-Paxton smearing, width (Ry)=  0.0100
                       cart. coord. in units 2pi/alat
        k(    1) = (   0.0000000   0.0000000   0.0000000), wk =   1.0000000

     Dense  grid:   929121 G-vectors     FFT dimensions: ( 125, 125, 125)

     Smooth grid:   505887 G-vectors     FFT dimensions: ( 100, 100, 100)

     Estimated max dynamical RAM per process >       3.71 GB
     Generating pointlists ...
     new r_m :   0.4125 (alat units) 11.6927 (a.u.) for type    1

     Initial potential from superposition of free atoms

     starting charge      12.9987, renormalised to      13.0000

     negative rho (up, down):  1.044E-02 3.479E-03
     Starting wfcs are   13 randomized atomic wfcs
     Checking if some PAW data can be deallocated... 

     total cpu time spent up to now is       11.9 secs

     Self-consistent Calculation

     iteration #  1     ecut=    30.00 Ry     beta= 0.40
     Davidson diagonalization with overlap
     ethr =  1.00E-02,  avg # of iterations =  2.0

     negative rho (up, down):  9.699E-03 6.380E-03

     total cpu time spent up to now is       14.0 secs

     total energy              =    -333.50026373 Ry
     estimated scf accuracy    <       0.53924087 Ry

     total magnetization       =     5.00 Bohr mag/cell
     absolute magnetization    =     5.00 Bohr mag/cell

     iteration #  2     ecut=    30.00 Ry     beta= 0.40
     Davidson diagonalization with overlap
     ethr =  4.15E-03,  avg # of iterations =  2.0

     negative rho (up, down):  9.196E-03 8.300E-03

     total cpu time spent up to now is       16.0 secs

     total energy              =    -333.67637292 Ry
     estimated scf accuracy    <       0.10645958 Ry

     total magnetization       =     5.02 Bohr mag/cell
     absolute magnetization    =     5.02 Bohr mag/cell

     iteration #  3     ecut=    30.00 Ry     beta= 0.40
     Davidson diagonalization with overlap
     ethr =  8.19E-04,  avg # of iterations =  1.5

     negative rho (up, down):  8.639E-03 1.224E-02

     total cpu time spent up to now is       17.9 secs

     total energy              =    -333.71776325 Ry
     estimated scf accuracy    <       0.04165623 Ry

     total magnetization       =     5.00 Bohr mag/cell
     absolute magnetization    =     5.00 Bohr mag/cell

     iteration #  4     ecut=    30.00 Ry     beta= 0.40
     Davidson diagonalization with overlap
     ethr =  3.20E-04,  avg # of iterations =  2.5

     negative rho (up, down):  8.381E-03 1.413E-02

     total cpu time spent up to now is       19.7 secs

     total energy              =    -333.72424781 Ry
     estimated scf accuracy    <       0.00653399 Ry

     total magnetization       =     5.00 Bohr mag/cell
     absolute magnetization    =     5.00 Bohr mag/cell

     iteration #  5     ecut=    30.00 Ry     beta= 0.40
     Davidson diagonalization with overlap
     ethr =  5.03E-05,  avg # of iterations =  4.5

     negative rho (up, down):  8.257E-03 1.511E-02

     total cpu time spent up to now is       22.4 secs

     total energy              =    -333.72613115 Ry
     estimated scf accuracy    <       0.00008516 Ry

     total magnetization       =     5.00 Bohr mag/cell
     absolute magnetization    =     5.00 Bohr mag/cell

     iteration #  6     ecut=    30.00 Ry     beta= 0.40
     Davidson diagonalization with overlap
     ethr =  6.55E-07,  avg # of iterations =  9.5

     negative rho (up, down):  8.237E-03 1.603E-02

     total cpu time spent up to now is       25.7 secs

     total energy              =    -333.72688653 Ry
     estimated scf accuracy    <       0.00009417 Ry

     total magnetization       =     5.00 Bohr mag/cell
     absolute magnetization    =     5.00 Bohr mag/cell

     iteration #  7     ecut=    30.00 Ry     beta= 0.40
     Davidson diagonalization with overlap
     ethr =  6.55E-07,  avg # of iterations =  1.5

     negative rho (up, down):  8.141E-03 1.511E-02

     total cpu time spent up to now is       27.7 secs

     total energy              =    -333.72548726 Ry
     estimated scf accuracy    <       0.00008709 Ry

     total magnetization       =     5.00 Bohr mag/cell
     absolute magnetization    =     5.00 Bohr mag/cell

     iteration #  8     ecut=    30.00 Ry     beta= 0.40
     Davidson diagonalization with overlap
     ethr =  6.55E-07,  avg # of iterations =  1.5

     negative rho (up, down):  8.103E-03 1.522E-02

     total cpu time spent up to now is       29.7 secs

     total energy              =    -333.72550933 Ry
     estimated scf accuracy    <       0.00000856 Ry

     total magnetization       =     5.00 Bohr mag/cell
     absolute magnetization    =     5.00 Bohr mag/cell

     iteration #  9     ecut=    30.00 Ry     beta= 0.40
     Davidson diagonalization with overlap
     ethr =  6.59E-08,  avg # of iterations =  2.5

     negative rho (up, down):  8.094E-03 1.529E-02

     total cpu time spent up to now is       31.7 secs

     total energy              =    -333.72551246 Ry
     estimated scf accuracy    <       0.00001167 Ry

     total magnetization       =     5.00 Bohr mag/cell
     absolute magnetization    =     5.00 Bohr mag/cell

     iteration # 10     ecut=    30.00 Ry     beta= 0.40
     Davidson diagonalization with overlap
     ethr =  6.59E-08,  avg # of iterations =  1.5

     negative rho (up, down):  8.088E-03 1.534E-02

     total cpu time spent up to now is       33.6 secs

     total energy              =    -333.72556059 Ry
     estimated scf accuracy    <       0.00000055 Ry

     total magnetization       =     5.00 Bohr mag/cell
     absolute magnetization    =     5.00 Bohr mag/cell

     iteration # 11     ecut=    30.00 Ry     beta= 0.40
     Davidson diagonalization with overlap
     ethr =  4.22E-09,  avg # of iterations =  2.5

     negative rho (up, down):  8.083E-03 1.537E-02

     total cpu time spent up to now is       35.6 secs

     total energy              =    -333.72558644 Ry
     estimated scf accuracy    <       0.00000013 Ry

     total magnetization       =     5.00 Bohr mag/cell
     absolute magnetization    =     5.00 Bohr mag/cell

     iteration # 12     ecut=    30.00 Ry     beta= 0.40
     Davidson diagonalization with overlap
     ethr =  9.87E-10,  avg # of iterations =  1.5

     negative rho (up, down):  8.075E-03 1.541E-02
 
     Magnetic moment per site  (integrated on atomic sphere of radius R)
     atom   1 (R=0.413)  charge= 12.9998  magn=  4.9999

     total cpu time spent up to now is       37.3 secs

     End of self-consistent calculation

 ------ SPIN UP ------------


          k = 0.0000 0.0000 0.0000 ( 63077 PWs)   bands (ev):

   -58.6738 -34.9305 -34.9305 -34.9305  -4.4312  -3.6479  -3.6479  -3.6479
    -3.6471  -3.6471  -1.3411

 ------ SPIN DOWN ----------


          k = 0.0000 0.0000 0.0000 ( 63077 PWs)   bands (ev):

   -56.7480 -32.6985 -32.6985 -32.6985  -2.2376  -1.0023  -1.0023  -0.9961
    -0.9961  -0.9961  -0.3886

     the Fermi energy is    -3.5953 ev

!    total energy              =    -333.72558557 Ry
     total all-electron energy =     -7639.431811 Ry
     estimated scf accuracy    <       0.00000009 Ry
     smearing contrib. (-TS)   =      -0.00428928 Ry
     internal energy E=F+TS    =    -333.72129629 Ry

     The total energy is F=E-TS. E is the sum of the following terms:
     one-electron contribution =    -155.59966094 Ry
     hartree contribution      =      75.93942296 Ry
     xc contribution           =     -18.39141253 Ry
     ewald contribution        =     -16.91614706 Ry
     one-center paw contrib.   =    -218.75349874 Ry

     total magnetization       =     5.00 Bohr mag/cell
     absolute magnetization    =     5.00 Bohr mag/cell

     convergence has been achieved in  12 iterations

     negative rho (up, down):  8.075E-03 1.541E-02

     Forces acting on atoms (cartesian axes, Ry/au):

     atom    1 type  1   force =     0.00000000    0.00000000    0.00000000

     Total force =     0.000000     Total SCF correction =     0.000000


     Computing stress (Cartesian axis) and pressure


     negative rho (up, down):  8.075E-03 1.541E-02
          total   stress  (Ry/bohr**3)                   (kbar)     P=       -1.37
  -0.00000931   0.00000000   0.00000000           -1.37        0.00        0.00
   0.00000000  -0.00000931   0.00000000            0.00       -1.37        0.00
   0.00000000   0.00000000  -0.00000931            0.00        0.00       -1.37


     Writing all to output data dir /root/qe_scratch/atom_Nb.save/ :
     XML data file, charge density, pseudopotentials, collected wavefunctions
 
     init_run     :      8.45s CPU     11.53s WALL (       1 calls)
     electrons    :     22.49s CPU     25.47s WALL (       1 calls)
     forces       :      0.19s CPU      0.22s WALL (       1 calls)
     stress       :      0.38s CPU      0.41s WALL (       1 calls)

     Called by init_run:
     wfcinit      :      0.16s CPU      0.33s WALL (       1 calls)
     potinit      :      7.22s CPU      9.87s WALL (       1 calls)
     hinit0       :      0.35s CPU      0.42s WALL (       1 calls)

     Called by electrons:
     c_bands      :      2.88s CPU      2.91s WALL (      12 calls)
     sum_band     :      2.14s CPU      2.18s WALL (      12 calls)
     v_of_rho     :      1.44s CPU      1.83s WALL (      13 calls)
     newd         :      0.44s CPU      0.50s WALL (      13 calls)
                                        0.50s GPU  (      13 calls)
     PAW_pot      :     10.80s CPU     12.69s WALL (      13 calls)
     mix_rho      :      1.64s CPU      1.84s WALL (      12 calls)

     Called by c_bands:
     init_us_2    :      0.01s CPU      0.02s WALL (      54 calls)
     cegterg      :      2.69s CPU      2.71s WALL (      24 calls)

     Called by *egterg:
     cdiaghg      :      0.07s CPU      0.10s WALL (      90 calls)
                                        0.10s GPU  (      90 calls)
     h_psi        :      0.37s CPU      0.53s WALL (      92 calls)
                                        0.53s GPU  (      92 calls)
     s_psi        :      0.00s CPU      0.01s WALL (      92 calls)
     g_psi        :      0.00s CPU      0.00s WALL (      66 calls)
                                        0.00s GPU  (      66 calls)

     Called by h_psi:
     h_psi:calbec :      0.11s CPU      0.29s WALL (      92 calls)
                                        0.29s GPU  (      92 calls)
     vloc_psi     :      0.20s CPU      0.21s WALL (      92 calls)
                                        0.21s GPU  (      92 calls)
     add_vuspsi   :      0.00s CPU      0.02s WALL (      92 calls)
                                        0.02s GPU  (      92 calls)

     General routines
     calbec       :      0.11s CPU      0.25s WALL (     126 calls)
     fft          :      6.15s CPU      8.30s WALL (     363 calls)
                                        0.10s GPU  (     337 calls)
     ffts         :      2.67s CPU      3.52s WALL (      50 calls)
                                        0.00s GPU  (      24 calls)
     fftw         :      0.01s CPU      0.20s WALL (     208 calls)
                                        0.20s GPU  (     208 calls)
     interpolate  :      9.17s CPU     12.15s WALL (      26 calls)
 
     Parallel routines
 
     PWSCF        :     32.05s CPU     38.37s WALL

 
   This run was terminated on:   8: 0:56   6May2026            

=------------------------------------------------------------------------------=
   JOB DONE.
=------------------------------------------------------------------------------=
Warning: ieee_invalid is signaling
Warning: ieee_divide_by_zero is signaling
Warning: ieee_inexact is signaling
FORTRAN STOP
