--------------------------------------------------------------------------
WARNING: Open MPI tried to bind a process but failed.  This is a
warning only; your job will continue, though performance may
be degraded.

  Local host:        3253031b5b37
  Application name:  /root/qe-7.3.1/bin/pw.x
  Error message:     failed to bind memory
  Location:          ../../../../../orte/mca/rtc/hwloc/rtc_hwloc.c:447

--------------------------------------------------------------------------

     Program PWSCF v.7.3.1 starts on  6May2026 at  7:59:51 

     This program is part of the open-source Quantum ESPRESSO suite
     for quantum simulation of materials; please cite
         "P. Giannozzi et al., J. Phys.:Condens. Matter 21 395502 (2009);
         "P. Giannozzi et al., J. Phys.:Condens. Matter 29 465901 (2017);
         "P. Giannozzi et al., J. Chem. Phys. 152 154105 (2020);
          URL http://www.quantum-espresso.org", 
     in publications or presentations arising from this work. More details at
     http://www.quantum-espresso.org/quote

     Parallel version (MPI & OpenMP), running on       8 processor cores
     Number of MPI processes:                 1
     Threads/MPI process:                     8

     MPI processes distributed on     1 nodes
     90225 MiB available memory on the printing compute node when the environment starts
 
     Reading input from atom_Na.in

     Current dimensions of program PWSCF are:
     Max number of different atomic species (ntypx) = 10
     Max number of k-points (npk) =  40000
     Max angular momentum in pseudopotentials (lmaxx) =  4
     file Na.UPF: wavefunction(s)  2P renormalized
     Message from routine setup:
     using ibrav=0 with symmetry is DISCOURAGED, use correct ibrav instead
 
     Subspace diagonalization in iterative solution of the eigenvalue problem:
     a serial algorithm will be used

 
     G-vector sticks info
     --------------------
     sticks:   dense  smooth     PW     G-vecs:    dense   smooth      PW
     Sum       11513    7685   1917               929121   505887   63077
 
     Using Slab Decomposition
 


     bravais-lattice index     =            0
     lattice parameter (alat)  =      28.3459  a.u.
     unit-cell volume          =   22775.6289 (a.u.)^3
     number of atoms/cell      =            1
     number of atomic types    =            1
     number of electrons       =         9.00
     number of Kohn-Sham states=            9
     kinetic-energy cutoff     =      30.0000  Ry
     charge density cutoff     =     180.0000  Ry
     scf convergence threshold =      1.0E-07
     mixing beta               =       0.4000
     number of iterations used =            8  plain     mixing
     Exchange-correlation= SLA  PW   PBX  PBC
                           (   1   4   3   4   0   0   0)

     GPU acceleration is ACTIVE.  1 visible GPUs per MPI rank


     celldm(1)=  28.345892  celldm(2)=   0.000000  celldm(3)=   0.000000
     celldm(4)=   0.000000  celldm(5)=   0.000000  celldm(6)=   0.000000

     crystal axes: (cart. coord. in units of alat)
               a(1) = (   1.000000   0.000000   0.000000 )  
               a(2) = (   0.000000   1.000000   0.000000 )  
               a(3) = (   0.000000   0.000000   1.000000 )  

     reciprocal axes: (cart. coord. in units 2 pi/alat)
               b(1) = (  1.000000  0.000000  0.000000 )  
               b(2) = (  0.000000  1.000000  0.000000 )  
               b(3) = (  0.000000  0.000000  1.000000 )  


     PseudoPot. # 1 for Na read from file:
     /root/qe_pseudos/Na.UPF
     MD5 check sum: 05b4deb74e3932c23ab016979dc8b5d4
     Pseudo is Projector augmented-wave + core cor, Zval =  9.0
     Generated using &quot;atomic&quot; code by A. Dal Corso  v.6.3
     Shape of augmentation charge: PSQ
     Using radial grid of 1121 points,  4 beta functions with: 
                l(1) =   0
                l(2) =   0
                l(3) =   1
                l(4) =   1
     Q(r) pseudized with 0 coefficients 


     atomic species   valence    mass     pseudopotential
     Na                9.00    22.98980     Na( 1.00)

     Starting magnetic structure 
     atomic species   magnetization
     Na              0.500

     48 Sym. Ops., with inversion, found



   Cartesian axes

     site n.     atom                  positions (alat units)
         1        Na     tau(   1) = (   0.5000000   0.5000000   0.5000000  )

     number of k points=     1  Methfessel-Paxton smearing, width (Ry)=  0.0100
                       cart. coord. in units 2pi/alat
        k(    1) = (   0.0000000   0.0000000   0.0000000), wk =   1.0000000

     Dense  grid:   929121 G-vectors     FFT dimensions: ( 125, 125, 125)

     Smooth grid:   505887 G-vectors     FFT dimensions: ( 100, 100, 100)

     Estimated max dynamical RAM per process >       1.60 GB
     Generating pointlists ...
     new r_m :   0.4125 (alat units) 11.6927 (a.u.) for type    1

     Initial potential from superposition of free atoms

     starting charge       8.9937, renormalised to       9.0000

     negative rho (up, down):  2.640E-02 8.799E-03
     Starting wfcs are    5 randomized atomic wfcs +    4 random wfcs
     Checking if some PAW data can be deallocated... 

     total cpu time spent up to now is       11.3 secs

     Self-consistent Calculation

     iteration #  1     ecut=    30.00 Ry     beta= 0.40
     Davidson diagonalization with overlap
     ethr =  1.00E-02,  avg # of iterations =  8.5

     negative rho (up, down):  2.155E-02 1.287E-02

     total cpu time spent up to now is       13.0 secs

     total energy              =    -108.60196533 Ry
     estimated scf accuracy    <       1.06937723 Ry

     total magnetization       =     1.00 Bohr mag/cell
     absolute magnetization    =     1.12 Bohr mag/cell

     iteration #  2     ecut=    30.00 Ry     beta= 0.40
     Davidson diagonalization with overlap
     ethr =  1.00E-02,  avg # of iterations =  1.0

     negative rho (up, down):  2.047E-02 4.334E-02

     total cpu time spent up to now is       14.2 secs

     total energy              =    -108.82188543 Ry
     estimated scf accuracy    <       0.41172983 Ry

     total magnetization       =     1.00 Bohr mag/cell
     absolute magnetization    =     1.06 Bohr mag/cell

     iteration #  3     ecut=    30.00 Ry     beta= 0.40
     Davidson diagonalization with overlap
     ethr =  4.57E-03,  avg # of iterations =  1.0

     negative rho (up, down):  1.760E-02 3.457E-02

     total cpu time spent up to now is       15.4 secs

     total energy              =    -108.83130833 Ry
     estimated scf accuracy    <       0.00131076 Ry

     total magnetization       =     1.00 Bohr mag/cell
     absolute magnetization    =     1.00 Bohr mag/cell

     iteration #  4     ecut=    30.00 Ry     beta= 0.40
     Davidson diagonalization with overlap
     ethr =  1.46E-05,  avg # of iterations = 17.0

     negative rho (up, down):  1.586E-02 2.855E-02

     total cpu time spent up to now is       17.7 secs

     total energy              =    -108.83169146 Ry
     estimated scf accuracy    <       0.00010237 Ry

     total magnetization       =     1.00 Bohr mag/cell
     absolute magnetization    =     1.00 Bohr mag/cell

     iteration #  5     ecut=    30.00 Ry     beta= 0.40
     Davidson diagonalization with overlap
     ethr =  1.14E-06,  avg # of iterations =  4.5

     negative rho (up, down):  1.522E-02 2.741E-02

     total cpu time spent up to now is       19.0 secs

     total energy              =    -108.83198237 Ry
     estimated scf accuracy    <       0.00000417 Ry

     total magnetization       =     1.00 Bohr mag/cell
     absolute magnetization    =     1.00 Bohr mag/cell

     iteration #  6     ecut=    30.00 Ry     beta= 0.40
     Davidson diagonalization with overlap
     ethr =  4.63E-08,  avg # of iterations =  3.0

     negative rho (up, down):  1.490E-02 2.727E-02

     total cpu time spent up to now is       20.4 secs

     total energy              =    -108.83200681 Ry
     estimated scf accuracy    <       0.00000132 Ry

     total magnetization       =     1.00 Bohr mag/cell
     absolute magnetization    =     1.00 Bohr mag/cell

     iteration #  7     ecut=    30.00 Ry     beta= 0.40
     Davidson diagonalization with overlap
     ethr =  1.46E-08,  avg # of iterations =  2.0

     negative rho (up, down):  1.473E-02 2.732E-02

     total cpu time spent up to now is       21.6 secs

     total energy              =    -108.83198071 Ry
     estimated scf accuracy    <       0.00000081 Ry

     total magnetization       =     1.00 Bohr mag/cell
     absolute magnetization    =     1.00 Bohr mag/cell

     iteration #  8     ecut=    30.00 Ry     beta= 0.40
     Davidson diagonalization with overlap
     ethr =  8.96E-09,  avg # of iterations =  2.5

     negative rho (up, down):  1.450E-02 2.754E-02
 
     Magnetic moment per site  (integrated on atomic sphere of radius R)
     atom   1 (R=0.413)  charge=  8.9989  magn=  0.9992

     total cpu time spent up to now is       22.8 secs

     End of self-consistent calculation

 ------ SPIN UP ------------


          k = 0.0000 0.0000 0.0000 ( 63077 PWs)   bands (ev):

   -57.7983 -28.7216 -28.7216 -28.7216  -3.0463  -0.9703  -0.9703  -0.9702
    -0.5935

 ------ SPIN DOWN ----------


          k = 0.0000 0.0000 0.0000 ( 63077 PWs)   bands (ev):

   -57.7278 -28.6390 -28.6390 -28.6390  -2.0676  -0.4968  -0.2796  -0.2796
    -0.2795

     the Fermi energy is    -2.5570 ev

!    total energy              =    -108.83204252 Ry
     total all-electron energy =      -324.450472 Ry
     estimated scf accuracy    <       0.00000002 Ry
     smearing contrib. (-TS)   =       0.00000017 Ry
     internal energy E=F+TS    =    -108.83204269 Ry

     The total energy is F=E-TS. E is the sum of the following terms:
     one-electron contribution =    -142.41334409 Ry
     hartree contribution      =      71.45233091 Ry
     xc contribution           =     -14.52046009 Ry
     ewald contribution        =      -8.10773915 Ry
     one-center paw contrib.   =     -15.24283026 Ry

     total magnetization       =     1.00 Bohr mag/cell
     absolute magnetization    =     1.00 Bohr mag/cell

     convergence has been achieved in   8 iterations

     negative rho (up, down):  1.450E-02 2.754E-02

     Forces acting on atoms (cartesian axes, Ry/au):

     atom    1 type  1   force =     0.00000000    0.00000000    0.00000000

     Total force =     0.000000     Total SCF correction =     0.000000


     Computing stress (Cartesian axis) and pressure


     negative rho (up, down):  1.450E-02 2.754E-02
          total   stress  (Ry/bohr**3)                   (kbar)     P=       -7.70
  -0.00005238   0.00000000   0.00000000           -7.70        0.00        0.00
   0.00000000  -0.00005238   0.00000000            0.00       -7.70        0.00
   0.00000000   0.00000000  -0.00005238            0.00        0.00       -7.70


     Writing all to output data dir /root/qe_scratch/atom_Na.save/ :
     XML data file, charge density, pseudopotentials, collected wavefunctions
 
     init_run     :      7.97s CPU     11.08s WALL (       1 calls)
     electrons    :     10.06s CPU     11.59s WALL (       1 calls)
     forces       :      0.16s CPU      0.20s WALL (       1 calls)
     stress       :      0.17s CPU      0.22s WALL (       1 calls)

     Called by init_run:
     wfcinit      :      0.17s CPU      0.34s WALL (       1 calls)
     potinit      :      6.81s CPU      9.49s WALL (       1 calls)
     hinit0       :      0.26s CPU      0.37s WALL (       1 calls)

     Called by electrons:
     c_bands      :      2.35s CPU      2.36s WALL (       8 calls)
     sum_band     :      1.07s CPU      1.11s WALL (       8 calls)
     v_of_rho     :      0.96s CPU      1.29s WALL (       9 calls)
     newd         :      0.19s CPU      0.22s WALL (       9 calls)
                                        0.22s GPU  (       9 calls)
     PAW_pot      :      2.13s CPU      2.82s WALL (       9 calls)
     mix_rho      :      0.88s CPU      0.99s WALL (       8 calls)

     Called by c_bands:
     init_us_2    :      0.01s CPU      0.01s WALL (      38 calls)
     cegterg      :      2.24s CPU      2.25s WALL (      16 calls)

     Called by *egterg:
     cdiaghg      :      0.07s CPU      0.10s WALL (      95 calls)
                                        0.10s GPU  (      95 calls)
     h_psi        :      0.34s CPU      0.49s WALL (      97 calls)
                                        0.49s GPU  (      97 calls)
     s_psi        :      0.00s CPU      0.01s WALL (      97 calls)
     g_psi        :      0.00s CPU      0.00s WALL (      79 calls)
                                        0.00s GPU  (      79 calls)

     Called by h_psi:
     h_psi:calbec :      0.13s CPU      0.30s WALL (      97 calls)
                                        0.30s GPU  (      97 calls)
     vloc_psi     :      0.15s CPU      0.16s WALL (      97 calls)
                                        0.16s GPU  (      97 calls)
     add_vuspsi   :      0.00s CPU      0.01s WALL (      97 calls)
                                        0.01s GPU  (      97 calls)

     General routines
     calbec       :      0.13s CPU      0.27s WALL (     123 calls)
     fft          :      5.76s CPU      7.97s WALL (     263 calls)
                                        0.07s GPU  (     245 calls)
     ffts         :      2.47s CPU      3.16s WALL (      34 calls)
                                        0.00s GPU  (      16 calls)
     fftw         :      0.01s CPU      0.14s WALL (     210 calls)
                                        0.14s GPU  (     210 calls)
     interpolate  :      8.46s CPU     11.37s WALL (      18 calls)
 
     Parallel routines
 
     PWSCF        :     18.71s CPU     23.65s WALL

 
   This run was terminated on:   8: 0:15   6May2026            

=------------------------------------------------------------------------------=
   JOB DONE.
=------------------------------------------------------------------------------=
Warning: ieee_invalid is signaling
Warning: ieee_divide_by_zero is signaling
Warning: ieee_inexact is signaling
FORTRAN STOP
