
     Program PWSCF v.6.7MaX starts on  6May2026 at  3:20:58 

     This program is part of the open-source Quantum ESPRESSO suite
     for quantum simulation of materials; please cite
         "P. Giannozzi et al., J. Phys.:Condens. Matter 21 395502 (2009);
         "P. Giannozzi et al., J. Phys.:Condens. Matter 29 465901 (2017);
          URL http://www.quantum-espresso.org", 
     in publications or presentations arising from this work. More details at
     http://www.quantum-espresso.org/quote

     Parallel version (MPI), running on     1 processors

     MPI processes distributed on     1 nodes
     Reading input from atom_C.in

     Current dimensions of program PWSCF are:
     Max number of different atomic species (ntypx) = 10
     Max number of k-points (npk) =  40000
     Max angular momentum in pseudopotentials (lmaxx) =  3

     Subspace diagonalization in iterative solution of the eigenvalue problem:
     a serial algorithm will be used

     Message from routine setup:
     no reason to have ecutrho>4*ecutwfc
     Message from routine setup:
     using ibrav=0 with symmetry is DISCOURAGED, use correct ibrav instead

     G-vector sticks info
     --------------------
     sticks:   dense  smooth     PW     G-vecs:    dense   smooth      PW
     Sum       11513    7685   1917               929121   505887   63077



     bravais-lattice index     =            0
     lattice parameter (alat)  =      28.3459  a.u.
     unit-cell volume          =   22775.6289 (a.u.)^3
     number of atoms/cell      =            1
     number of atomic types    =            1
     number of electrons       =         4.00
     number of Kohn-Sham states=            6
     kinetic-energy cutoff     =      30.0000  Ry
     charge density cutoff     =     180.0000  Ry
     scf convergence threshold =      1.0E-07
     mixing beta               =       0.4000
     number of iterations used =            8  plain     mixing
     Exchange-correlation= SLA  PW   PBX  PBC
                           (   1   4   3   4   0   0   0)

     celldm(1)=  28.345892  celldm(2)=   0.000000  celldm(3)=   0.000000
     celldm(4)=   0.000000  celldm(5)=   0.000000  celldm(6)=   0.000000

     crystal axes: (cart. coord. in units of alat)
               a(1) = (   1.000000   0.000000   0.000000 )  
               a(2) = (   0.000000   1.000000   0.000000 )  
               a(3) = (   0.000000   0.000000   1.000000 )  

     reciprocal axes: (cart. coord. in units 2 pi/alat)
               b(1) = (  1.000000  0.000000  0.000000 )  
               b(2) = (  0.000000  1.000000  0.000000 )  
               b(3) = (  0.000000  0.000000  1.000000 )  


     PseudoPot. # 1 for C  read from file:
     /root/qe_pseudos/C.UPF
     MD5 check sum: 9b35a7431356f8229172919cb1fa74b8
     Pseudo is Norm-conserving, Zval =  4.0
     Generated by new atomic code, or converted to UPF format
     Using radial grid of 1073 points,  1 beta functions with: 
                l(1) =   0

     atomic species   valence    mass     pseudopotential
        C              4.00    12.01100     C ( 1.00)

     Starting magnetic structure 
     atomic species   magnetization
        C            0.500

     48 Sym. Ops., with inversion, found



   Cartesian axes

     site n.     atom                  positions (alat units)
         1           C   tau(   1) = (   0.5000000   0.5000000   0.5000000  )

     number of k points=     1  Methfessel-Paxton smearing, width (Ry)=  0.0100
                       cart. coord. in units 2pi/alat
        k(    1) = (   0.0000000   0.0000000   0.0000000), wk =   1.0000000

     Dense  grid:   929121 G-vectors     FFT dimensions: ( 125, 125, 125)

     Smooth grid:   505887 G-vectors     FFT dimensions: ( 100, 100, 100)

     Estimated max dynamical RAM per process >     916.75 MB
     Generating pointlists ...
     new r_m :   0.4125 (alat units) 11.6927 (a.u.) for type    1

     Initial potential from superposition of free atoms

     starting charge    3.50000, renormalised to    4.00000

     negative rho (up, down):  1.566E-03 5.219E-04
     Starting wfcs are    8 randomized atomic wfcs

     total cpu time spent up to now is        3.4 secs

     Self-consistent Calculation

     iteration #  1     ecut=    30.00 Ry     beta= 0.40
     Davidson diagonalization with overlap
     ethr =  1.00E-02,  avg # of iterations =  5.5

     negative rho (up, down):  7.498E-04 2.957E-04

     total cpu time spent up to now is        7.0 secs

     total energy              =     -10.79178914 Ry
     estimated scf accuracy    <       0.04624120 Ry

     total magnetization       =     2.00 Bohr mag/cell
     absolute magnetization    =     2.00 Bohr mag/cell

     iteration #  2     ecut=    30.00 Ry     beta= 0.40
     Davidson diagonalization with overlap
     ethr =  1.16E-03,  avg # of iterations =  1.5

     negative rho (up, down):  9.030E-04 3.661E-04

     total cpu time spent up to now is       10.0 secs

     total energy              =     -10.79069611 Ry
     estimated scf accuracy    <       0.00760819 Ry

     total magnetization       =     2.00 Bohr mag/cell
     absolute magnetization    =     2.00 Bohr mag/cell

     iteration #  3     ecut=    30.00 Ry     beta= 0.40
     Davidson diagonalization with overlap
     ethr =  1.90E-04,  avg # of iterations =  5.0

     negative rho (up, down):  3.495E-04 1.471E-04

     total cpu time spent up to now is       13.5 secs

     total energy              =     -10.79321854 Ry
     estimated scf accuracy    <       0.00041930 Ry

     total magnetization       =     2.00 Bohr mag/cell
     absolute magnetization    =     2.00 Bohr mag/cell

     iteration #  4     ecut=    30.00 Ry     beta= 0.40
     Davidson diagonalization with overlap
     ethr =  1.05E-05,  avg # of iterations =  8.0

     negative rho (up, down):  6.580E-04 2.684E-04

     total cpu time spent up to now is       17.0 secs

     total energy              =     -10.79336775 Ry
     estimated scf accuracy    <       0.00002940 Ry

     total magnetization       =     2.00 Bohr mag/cell
     absolute magnetization    =     2.00 Bohr mag/cell

     iteration #  5     ecut=    30.00 Ry     beta= 0.40
     Davidson diagonalization with overlap
     ethr =  7.35E-07,  avg # of iterations =  7.5

     negative rho (up, down):  3.816E-04 1.605E-04

     total cpu time spent up to now is       20.6 secs

     total energy              =     -10.79337328 Ry
     estimated scf accuracy    <       0.00001254 Ry

     total magnetization       =     2.00 Bohr mag/cell
     absolute magnetization    =     2.00 Bohr mag/cell

     iteration #  6     ecut=    30.00 Ry     beta= 0.40
     Davidson diagonalization with overlap
     ethr =  3.14E-07,  avg # of iterations =  2.0

     negative rho (up, down):  2.060E-04 8.975E-05

     total cpu time spent up to now is       23.8 secs

     total energy              =     -10.79337488 Ry
     estimated scf accuracy    <       0.00000018 Ry

     total magnetization       =     2.00 Bohr mag/cell
     absolute magnetization    =     2.00 Bohr mag/cell

     iteration #  7     ecut=    30.00 Ry     beta= 0.40
     Davidson diagonalization with overlap
     ethr =  4.47E-09,  avg # of iterations =  2.0

     Magnetic moment per site:
     atom:    1    charge:    4.0000    magn:    2.0000    constr:    0.0000

     total cpu time spent up to now is       26.6 secs

     End of self-consistent calculation

 ------ SPIN UP ------------


          k = 0.0000 0.0000 0.0000 ( 63077 PWs)   bands (ev):

   -14.7705  -6.0089  -6.0089  -6.0089  -0.3948   0.1881

 ------ SPIN DOWN ----------


          k = 0.0000 0.0000 0.0000 ( 63077 PWs)   bands (ev):

   -11.8680  -3.3121  -3.3121  -3.3121  -0.1718   0.5185

     the Fermi energy is    -5.9815 ev

!    total energy              =     -10.79337556 Ry
     estimated scf accuracy    <       0.00000008 Ry
     smearing contrib. (-TS)   =      -0.00373359 Ry
     internal energy E=F+TS    =     -10.78964197 Ry

     The total energy is F=E-TS. E is the sum of the following terms:
     one-electron contribution =     -13.45962491 Ry
     hartree contribution      =       7.21427540 Ry
     xc contribution           =      -2.94276370 Ry
     ewald contribution        =      -1.60152877 Ry

     total magnetization       =     2.00 Bohr mag/cell
     absolute magnetization    =     2.00 Bohr mag/cell

     convergence has been achieved in   7 iterations

     Forces acting on atoms (cartesian axes, Ry/au):

     atom    1 type  1   force =     0.00000000    0.00000000    0.00000000

     Total force =     0.000000     Total SCF correction =     0.000000


     Computing stress (Cartesian axis) and pressure

          total   stress  (Ry/bohr**3)                   (kbar)     P=       -0.82
  -0.00000560   0.00000000   0.00000000           -0.82        0.00        0.00
   0.00000000  -0.00000560   0.00000000            0.00       -0.82        0.00
   0.00000000   0.00000000  -0.00000560            0.00        0.00       -0.82


     Writing output data file /root/qe_scratch/atom_C.save/

     init_run     :      2.95s CPU      3.41s WALL (       1 calls)
     electrons    :     22.36s CPU     23.26s WALL (       1 calls)
     forces       :      0.25s CPU      0.25s WALL (       1 calls)
     stress       :      1.08s CPU      1.30s WALL (       1 calls)

     Called by init_run:
     wfcinit      :      0.40s CPU      0.41s WALL (       1 calls)
     potinit      :      1.77s CPU      2.13s WALL (       1 calls)
     hinit0       :      0.21s CPU      0.24s WALL (       1 calls)

     Called by electrons:
     c_bands      :      6.04s CPU      6.06s WALL (       7 calls)
     sum_band     :      2.52s CPU      2.54s WALL (       7 calls)
     v_of_rho     :     11.98s CPU     12.92s WALL (       8 calls)
     mix_rho      :      1.98s CPU      2.12s WALL (       7 calls)

     Called by c_bands:
     init_us_2    :      0.04s CPU      0.04s WALL (      34 calls)
     cegterg      :      5.99s CPU      6.02s WALL (      14 calls)

     Called by *egterg:
     cdiaghg      :      0.00s CPU      0.00s WALL (      77 calls)
     h_psi        :      5.53s CPU      5.56s WALL (      79 calls)
     g_psi        :      0.08s CPU      0.08s WALL (      63 calls)

     Called by h_psi:
     h_psi:calbec :      0.02s CPU      0.03s WALL (      79 calls)
     vloc_psi     :      5.44s CPU      5.46s WALL (      79 calls)
     add_vuspsi   :      0.04s CPU      0.04s WALL (      79 calls)

     General routines
     calbec       :      0.03s CPU      0.03s WALL (      89 calls)
     fft          :      9.27s CPU      9.27s WALL (     189 calls)
     ffts         :      0.48s CPU      0.48s WALL (      30 calls)
     fftw         :      5.42s CPU      5.43s WALL (     650 calls)
     interpolate  :      1.18s CPU      1.18s WALL (      16 calls)

     Parallel routines

     PWSCF        :     26.73s CPU     28.38s WALL


   This run was terminated on:   3:21:26   6May2026            

=------------------------------------------------------------------------------=
   JOB DONE.
=------------------------------------------------------------------------------=
Note: The following floating-point exceptions are signalling: IEEE_UNDERFLOW_FLAG IEEE_DENORMAL
