--------------------------------------------------------------------------
WARNING: Open MPI tried to bind a process but failed.  This is a
warning only; your job will continue, though performance may
be degraded.

  Local host:        3253031b5b37
  Application name:  /root/qe-7.3.1/bin/pw.x
  Error message:     failed to bind memory
  Location:          ../../../../../orte/mca/rtc/hwloc/rtc_hwloc.c:447

--------------------------------------------------------------------------

     Program PWSCF v.7.3.1 starts on  6May2026 at  7:55: 4 

     This program is part of the open-source Quantum ESPRESSO suite
     for quantum simulation of materials; please cite
         "P. Giannozzi et al., J. Phys.:Condens. Matter 21 395502 (2009);
         "P. Giannozzi et al., J. Phys.:Condens. Matter 29 465901 (2017);
         "P. Giannozzi et al., J. Chem. Phys. 152 154105 (2020);
          URL http://www.quantum-espresso.org", 
     in publications or presentations arising from this work. More details at
     http://www.quantum-espresso.org/quote

     Parallel version (MPI & OpenMP), running on       8 processor cores
     Number of MPI processes:                 1
     Threads/MPI process:                     8

     MPI processes distributed on     1 nodes
     90675 MiB available memory on the printing compute node when the environment starts
 
     Reading input from atom_Ge.in

     Current dimensions of program PWSCF are:
     Max number of different atomic species (ntypx) = 10
     Max number of k-points (npk) =  40000
     Max angular momentum in pseudopotentials (lmaxx) =  4
     file Ge.UPF: wavefunction(s)  4S renormalized
     Message from routine setup:
     using ibrav=0 with symmetry is DISCOURAGED, use correct ibrav instead
 
     Subspace diagonalization in iterative solution of the eigenvalue problem:
     a serial algorithm will be used

 
     G-vector sticks info
     --------------------
     sticks:   dense  smooth     PW     G-vecs:    dense   smooth      PW
     Sum       11513    7685   1917               929121   505887   63077
 
     Using Slab Decomposition
 


     bravais-lattice index     =            0
     lattice parameter (alat)  =      28.3459  a.u.
     unit-cell volume          =   22775.6289 (a.u.)^3
     number of atoms/cell      =            1
     number of atomic types    =            1
     number of electrons       =         4.00
     number of Kohn-Sham states=            6
     kinetic-energy cutoff     =      30.0000  Ry
     charge density cutoff     =     180.0000  Ry
     scf convergence threshold =      1.0E-07
     mixing beta               =       0.4000
     number of iterations used =            8  plain     mixing
     Exchange-correlation= SLA  PW   PBX  PBC
                           (   1   4   3   4   0   0   0)

     GPU acceleration is ACTIVE.  1 visible GPUs per MPI rank


     celldm(1)=  28.345892  celldm(2)=   0.000000  celldm(3)=   0.000000
     celldm(4)=   0.000000  celldm(5)=   0.000000  celldm(6)=   0.000000

     crystal axes: (cart. coord. in units of alat)
               a(1) = (   1.000000   0.000000   0.000000 )  
               a(2) = (   0.000000   1.000000   0.000000 )  
               a(3) = (   0.000000   0.000000   1.000000 )  

     reciprocal axes: (cart. coord. in units 2 pi/alat)
               b(1) = (  1.000000  0.000000  0.000000 )  
               b(2) = (  0.000000  1.000000  0.000000 )  
               b(3) = (  0.000000  0.000000  1.000000 )  


     PseudoPot. # 1 for Ge read from file:
     /root/qe_pseudos/Ge.UPF
     MD5 check sum: fa6acec385508fbd41db1ad5f2fba766
     Pseudo is Projector augmented-wave + core cor, Zval =  4.0
     Generated using "atomic" code by A. Dal Corso (espresso distribution)
     Shape of augmentation charge: BESSEL
     Using radial grid of 1207 points,  4 beta functions with: 
                l(1) =   0
                l(2) =   0
                l(3) =   1
                l(4) =   1
     Q(r) pseudized with 0 coefficients 


     atomic species   valence    mass     pseudopotential
     Ge                4.00    72.63000     Ge( 1.00)

     Starting magnetic structure 
     atomic species   magnetization
     Ge              0.500

     48 Sym. Ops., with inversion, found



   Cartesian axes

     site n.     atom                  positions (alat units)
         1        Ge     tau(   1) = (   0.5000000   0.5000000   0.5000000  )

     number of k points=     1  Methfessel-Paxton smearing, width (Ry)=  0.0100
                       cart. coord. in units 2pi/alat
        k(    1) = (   0.0000000   0.0000000   0.0000000), wk =   1.0000000

     Dense  grid:   929121 G-vectors     FFT dimensions: ( 125, 125, 125)

     Smooth grid:   505887 G-vectors     FFT dimensions: ( 100, 100, 100)

     Estimated max dynamical RAM per process >       1.59 GB
     Generating pointlists ...
     new r_m :   0.4125 (alat units) 11.6927 (a.u.) for type    1

     Initial potential from superposition of free atoms

     starting charge       3.9992, renormalised to       4.0000

     negative rho (up, down):  1.170E-02 3.899E-03
     Starting wfcs are    4 randomized atomic wfcs +    2 random wfcs
     Checking if some PAW data can be deallocated... 

     total cpu time spent up to now is       11.0 secs

     Self-consistent Calculation

     iteration #  1     ecut=    30.00 Ry     beta= 0.40
     Davidson diagonalization with overlap
     ethr =  1.00E-02,  avg # of iterations =  5.0

     Threshold (ethr) on eigenvalues was too large:
     Diagonalizing with lowered threshold

     Davidson diagonalization with overlap
     c_bands:  1 eigenvalues not converged
     ethr =  1.96E-05,  avg # of iterations = 19.0

     negative rho (up, down):  1.329E-02 2.912E-03

     total cpu time spent up to now is       14.5 secs

     total energy              =    -163.84376641 Ry
     estimated scf accuracy    <       0.00114281 Ry

     total magnetization       =     2.00 Bohr mag/cell
     absolute magnetization    =     2.04 Bohr mag/cell

     iteration #  2     ecut=    30.00 Ry     beta= 0.40
     Davidson diagonalization with overlap
     ethr =  2.86E-05,  avg # of iterations =  1.0

     negative rho (up, down):  1.519E-02 2.062E-03

     total cpu time spent up to now is       15.7 secs

     total energy              =    -163.84514937 Ry
     estimated scf accuracy    <       0.00033966 Ry

     total magnetization       =     2.00 Bohr mag/cell
     absolute magnetization    =     2.04 Bohr mag/cell

     iteration #  3     ecut=    30.00 Ry     beta= 0.40
     Davidson diagonalization with overlap
     ethr =  8.49E-06,  avg # of iterations =  3.5

     negative rho (up, down):  1.528E-02 2.013E-03

     total cpu time spent up to now is       16.9 secs

     total energy              =    -163.84545500 Ry
     estimated scf accuracy    <       0.00006140 Ry

     total magnetization       =     2.00 Bohr mag/cell
     absolute magnetization    =     2.04 Bohr mag/cell

     iteration #  4     ecut=    30.00 Ry     beta= 0.40
     Davidson diagonalization with overlap
     ethr =  1.53E-06,  avg # of iterations =  6.5

     negative rho (up, down):  1.580E-02 2.047E-03

     total cpu time spent up to now is       19.0 secs

     total energy              =    -163.84551179 Ry
     estimated scf accuracy    <       0.00004343 Ry

     total magnetization       =     2.00 Bohr mag/cell
     absolute magnetization    =     2.04 Bohr mag/cell

     iteration #  5     ecut=    30.00 Ry     beta= 0.40
     Davidson diagonalization with overlap
     ethr =  1.09E-06,  avg # of iterations =  3.5

     negative rho (up, down):  1.573E-02 1.979E-03

     total cpu time spent up to now is       20.6 secs

     total energy              =    -163.84551833 Ry
     estimated scf accuracy    <       0.00000030 Ry

     total magnetization       =     2.00 Bohr mag/cell
     absolute magnetization    =     2.04 Bohr mag/cell

     iteration #  6     ecut=    30.00 Ry     beta= 0.40
     Davidson diagonalization with overlap
     ethr =  7.46E-09,  avg # of iterations =  3.5

     negative rho (up, down):  1.573E-02 2.016E-03

     total cpu time spent up to now is       22.0 secs

     total energy              =    -163.84551818 Ry
     estimated scf accuracy    <       0.00000029 Ry

     total magnetization       =     2.00 Bohr mag/cell
     absolute magnetization    =     2.04 Bohr mag/cell

     iteration #  7     ecut=    30.00 Ry     beta= 0.40
     Davidson diagonalization with overlap
     ethr =  7.18E-09,  avg # of iterations =  2.0

     negative rho (up, down):  1.573E-02 2.025E-03
 
     Magnetic moment per site  (integrated on atomic sphere of radius R)
     atom   1 (R=0.413)  charge=  4.0000  magn=  2.0000

     total cpu time spent up to now is       23.2 secs

     End of self-consistent calculation

 ------ SPIN UP ------------


          k = 0.0000 0.0000 0.0000 ( 63077 PWs)   bands (ev):

   -12.1505  -4.3395  -4.3395  -4.3395  -0.6242   0.0718

 ------ SPIN DOWN ----------


          k = 0.0000 0.0000 0.0000 ( 63077 PWs)   bands (ev):

   -10.6999  -2.8287  -2.8287  -2.8287  -0.3040   0.3558

     the Fermi energy is    -4.3121 ev

!    total energy              =    -163.84551867 Ry
     total all-electron energy =     -4197.727898 Ry
     estimated scf accuracy    <          6.0E-09 Ry
     smearing contrib. (-TS)   =      -0.00373359 Ry
     internal energy E=F+TS    =    -163.84178508 Ry

     The total energy is F=E-TS. E is the sum of the following terms:
     one-electron contribution =      -7.46567159 Ry
     hartree contribution      =       4.26551277 Ry
     xc contribution           =     -15.88372657 Ry
     ewald contribution        =      -1.60152877 Ry
     one-center paw contrib.   =    -143.15637093 Ry

     total magnetization       =     2.00 Bohr mag/cell
     absolute magnetization    =     2.04 Bohr mag/cell

     convergence has been achieved in   7 iterations

     negative rho (up, down):  1.573E-02 2.025E-03

     Forces acting on atoms (cartesian axes, Ry/au):

     atom    1 type  1   force =     0.00000000    0.00000000    0.00000000

     Total force =     0.000000     Total SCF correction =     0.000000


     Computing stress (Cartesian axis) and pressure


     negative rho (up, down):  1.573E-02 2.025E-03
          total   stress  (Ry/bohr**3)                   (kbar)     P=       -0.00
  -0.00000000   0.00000000   0.00000000           -0.00        0.00        0.00
   0.00000000  -0.00000000   0.00000000            0.00       -0.00        0.00
   0.00000000   0.00000000  -0.00000000            0.00        0.00       -0.00


     Writing all to output data dir /root/qe_scratch/atom_Ge.save/ :
     XML data file, charge density, pseudopotentials, collected wavefunctions
 
     init_run     :      7.92s CPU     10.82s WALL (       1 calls)
     electrons    :     10.92s CPU     12.29s WALL (       1 calls)
     forces       :      0.17s CPU      0.19s WALL (       1 calls)
     stress       :      0.18s CPU      0.22s WALL (       1 calls)

     Called by init_run:
     wfcinit      :      0.14s CPU      0.33s WALL (       1 calls)
     potinit      :      6.79s CPU      9.25s WALL (       1 calls)
     hinit0       :      0.29s CPU      0.37s WALL (       1 calls)

     Called by electrons:
     c_bands      :      4.06s CPU      4.07s WALL (       8 calls)
     sum_band     :      1.06s CPU      1.09s WALL (       8 calls)
     v_of_rho     :      0.85s CPU      1.13s WALL (       8 calls)
     newd         :      0.16s CPU      0.21s WALL (       8 calls)
                                        0.21s GPU  (       8 calls)
     PAW_pot      :      2.03s CPU      2.62s WALL (       8 calls)
     mix_rho      :      0.71s CPU      0.80s WALL (       8 calls)

     Called by c_bands:
     init_us_2    :      0.01s CPU      0.01s WALL (      38 calls)
     cegterg      :      3.98s CPU      3.99s WALL (      16 calls)

     Called by *egterg:
     cdiaghg      :      0.06s CPU      0.08s WALL (     102 calls)
                                        0.08s GPU  (     102 calls)
     h_psi        :      0.27s CPU      0.44s WALL (     106 calls)
                                        0.44s GPU  (     106 calls)
     s_psi        :      0.01s CPU      0.01s WALL (     106 calls)
     g_psi        :      0.00s CPU      0.00s WALL (      88 calls)
                                        0.00s GPU  (      88 calls)

     Called by h_psi:
     h_psi:calbec :      0.11s CPU      0.30s WALL (     106 calls)
                                        0.30s GPU  (     106 calls)
     vloc_psi     :      0.11s CPU      0.12s WALL (     106 calls)
                                        0.12s GPU  (     106 calls)
     add_vuspsi   :      0.01s CPU      0.01s WALL (     106 calls)
                                        0.01s GPU  (     106 calls)

     General routines
     calbec       :      0.11s CPU      0.27s WALL (     132 calls)
     fft          :      5.44s CPU      7.44s WALL (     240 calls)
                                        0.07s GPU  (     224 calls)
     ffts         :      2.41s CPU      3.12s WALL (      32 calls)
                                        0.00s GPU  (      16 calls)
     fftw         :      0.01s CPU      0.09s WALL (     228 calls)
                                        0.09s GPU  (     228 calls)
     interpolate  :      8.04s CPU     10.76s WALL (      16 calls)
 
     Parallel routines
 
     PWSCF        :     19.52s CPU     24.04s WALL

 
   This run was terminated on:   7:55:28   6May2026            

=------------------------------------------------------------------------------=
   JOB DONE.
=------------------------------------------------------------------------------=
Warning: ieee_invalid is signaling
Warning: ieee_divide_by_zero is signaling
Warning: ieee_inexact is signaling
FORTRAN STOP
