--------------------------------------------------------------------------
WARNING: Open MPI tried to bind a process but failed.  This is a
warning only; your job will continue, though performance may
be degraded.

  Local host:        3253031b5b37
  Application name:  /root/qe-7.3.1/bin/pw.x
  Error message:     failed to bind memory
  Location:          ../../../../../orte/mca/rtc/hwloc/rtc_hwloc.c:447

--------------------------------------------------------------------------

     Program PWSCF v.7.3.1 starts on  7May2026 at  4:36: 9 

     This program is part of the open-source Quantum ESPRESSO suite
     for quantum simulation of materials; please cite
         "P. Giannozzi et al., J. Phys.:Condens. Matter 21 395502 (2009);
         "P. Giannozzi et al., J. Phys.:Condens. Matter 29 465901 (2017);
         "P. Giannozzi et al., J. Chem. Phys. 152 154105 (2020);
          URL http://www.quantum-espresso.org", 
     in publications or presentations arising from this work. More details at
     http://www.quantum-espresso.org/quote

     Parallel version (MPI & OpenMP), running on       8 processor cores
     Number of MPI processes:                 1
     Threads/MPI process:                     8

     MPI processes distributed on     1 nodes
     89989 MiB available memory on the printing compute node when the environment starts
 
     Reading input from cand267_A_TaS2_Pb.in

     Current dimensions of program PWSCF are:
     Max number of different atomic species (ntypx) = 10
     Max number of k-points (npk) =  40000
     Max angular momentum in pseudopotentials (lmaxx) =  4
     file Pb.UPF: wavefunction(s)  6S 6P 5D renormalized
     file S.UPF: wavefunction(s)  3S 3P renormalized
     file Ta.UPF: wavefunction(s)  6S 5P 5D renormalized
 
     Subspace diagonalization in iterative solution of the eigenvalue problem:
     a serial algorithm will be used

 
     G-vector sticks info
     --------------------
     sticks:   dense  smooth     PW     G-vecs:    dense   smooth      PW
     Sum        4543    3049    757               443143   241367   30179
 
     Using Slab Decomposition
 


     bravais-lattice index     =            0
     lattice parameter (alat)  =      19.1703  a.u.
     unit-cell volume          =   10861.2256 (a.u.)^3
     number of atoms/cell      =           28
     number of atomic types    =            3
     number of electrons       =       239.00
     number of Kohn-Sham states=          144
     kinetic-energy cutoff     =      30.0000  Ry
     charge density cutoff     =     180.0000  Ry
     scf convergence threshold =      1.0E-07
     mixing beta               =       0.4000
     number of iterations used =            8  plain     mixing
     Exchange-correlation= SLA  PW   PBX  PBC
                           (   1   4   3   4   0   0   0)

     GPU acceleration is ACTIVE.  1 visible GPUs per MPI rank


     celldm(1)=  19.170297  celldm(2)=   0.000000  celldm(3)=   0.000000
     celldm(4)=   0.000000  celldm(5)=   0.000000  celldm(6)=   0.000000

     crystal axes: (cart. coord. in units of alat)
               a(1) = (   1.000000   0.000000   0.000000 )  
               a(2) = (  -0.500000   0.866025   0.000000 )  
               a(3) = (   0.000000   0.000000   1.780171 )  

     reciprocal axes: (cart. coord. in units 2 pi/alat)
               b(1) = (  1.000000  0.577350 -0.000000 )  
               b(2) = (  0.000000  1.154701  0.000000 )  
               b(3) = (  0.000000 -0.000000  0.561744 )  


     PseudoPot. # 1 for Pb read from file:
     /root/qe_pseudos/Pb.UPF
     MD5 check sum: 8dd1fa6bc87c0adeb4efb5a3e91ed847
     Pseudo is Projector augmented-wave + core cor, Zval = 14.0
     Generated using &quot;atomic&quot; code by A. Dal Corso  v.6.3
     Shape of augmentation charge: PSQ
     Using radial grid of 1281 points,  6 beta functions with: 
                l(1) =   0
                l(2) =   0
                l(3) =   1
                l(4) =   1
                l(5) =   2
                l(6) =   2
     Q(r) pseudized with 0 coefficients 


     PseudoPot. # 2 for S  read from file:
     /root/qe_pseudos/S.UPF
     MD5 check sum: fb45dfebcf3e72a4e1bd4a866ec2e262
     Pseudo is Projector augmented-wave + core cor, Zval =  6.0
     Generated using &quot;atomic&quot; code by A. Dal Corso  v.6.3
     Shape of augmentation charge: PSQ
     Using radial grid of 1151 points,  6 beta functions with: 
                l(1) =   0
                l(2) =   0
                l(3) =   1
                l(4) =   1
                l(5) =   2
                l(6) =   2
     Q(r) pseudized with 0 coefficients 


     PseudoPot. # 3 for Ta read from file:
     /root/qe_pseudos/Ta.UPF
     MD5 check sum: 70e26a4a8c1f0430003df9f0e8af0a92
     Pseudo is Projector augmented-wave + core cor, Zval = 13.0
     Generated using &quot;atomic&quot; code by A. Dal Corso  v.6.3
     Shape of augmentation charge: PSQ
     Using radial grid of 1273 points,  6 beta functions with: 
                l(1) =   0
                l(2) =   0
                l(3) =   1
                l(4) =   1
                l(5) =   2
                l(6) =   2
     Q(r) pseudized with 0 coefficients 


     atomic species   valence    mass     pseudopotential
     Pb               14.00   207.20000     Pb( 1.00)
     S                 6.00    32.06000     S ( 1.00)
     Ta               13.00   180.94790     Ta( 1.00)

     No symmetry found



   Cartesian axes

     site n.     atom                  positions (alat units)
         1        S      tau(   1) = (   0.3321997   0.3853288   1.0428311  )
         2        S      tau(   2) = (   0.0028054   0.7691003   0.7368459  )
         3        S      tau(   3) = (   0.1660911   0.6739036   1.0438238  )
         4        S      tau(   4) = (   0.1694021   0.4827379   0.7354352  )
         5        S      tau(   5) = (   0.3317512   0.7670396   0.7349148  )
         6        S      tau(   6) = (   0.6607110   0.3857415   1.0393085  )
         7        S      tau(   7) = (   0.3278303   0.1876403   0.7411619  )
         8        S      tau(   8) = (   0.4997995   0.0936325   1.0430568  )
         9        S      tau(   9) = (   0.6655998   0.1917631   0.7388227  )
        10        S      tau(  10) = (   0.5002369   0.4776246   0.7403554  )
        11        S      tau(  11) = (  -0.1675562   0.6684203   1.0420807  )
        12        S      tau(  12) = (  -0.1658116   0.4849096   0.7390631  )
        13        S      tau(  13) = (  -0.0024776   0.3830059   1.0422072  )
        14        S      tau(  14) = (   0.5010981   0.6762324   1.0420951  )
        15        S      tau(  15) = (  -0.0009299   0.1947164   0.7398935  )
        16        S      tau(  16) = (   0.1676639   0.0963546   1.0299602  )
        17        S      tau(  17) = (  -0.3372853   0.7688734   0.7395502  )
        18        S      tau(  18) = (   0.8332850   0.0996451   1.0427494  )
        19        Ta     tau(  19) = (   0.3270758   0.5792546   0.8928593  )
        20        Ta     tau(  20) = (   0.5059271   0.2925643   0.8883415  )
        21        Ta     tau(  21) = (  -0.0113997  -0.0094592   0.8880745  )
        22        Ta     tau(  22) = (   0.0014599   0.5786903   0.8904788  )
        23        Ta     tau(  23) = (   0.1681561   0.3013603   0.8894637  )
        24        Ta     tau(  24) = (   0.3462591   0.0004086   0.8897175  )
        25        Ta     tau(  25) = (  -0.3285346   0.5806265   0.8876684  )
        26        Ta     tau(  26) = (  -0.1609996   0.2835479   0.8875367  )
        27        Ta     tau(  27) = (   0.6677215  -0.0016278   0.8910623  )
        28        Pb     tau(  28) = (   0.1665877   0.0964945   1.3006356  )

     number of k points=     1  Methfessel-Paxton smearing, width (Ry)=  0.0100
                       cart. coord. in units 2pi/alat
        k(    1) = (   0.0000000   0.0000000   0.0000000), wk =   2.0000000

     Dense  grid:   443143 G-vectors     FFT dimensions: (  81,  81, 150)

     Smooth grid:   241367 G-vectors     FFT dimensions: (  72,  72, 120)

     Estimated max dynamical RAM per process >       2.14 GB

     Check: negative core charge=   -0.000005

     Initial potential from superposition of free atoms

     starting charge     238.9895, renormalised to     239.0000

     negative rho (up, down):  3.116E-02 0.000E+00
     Starting wfcs are  171 randomized atomic wfcs
     Checking if some PAW data can be deallocated... 

     total cpu time spent up to now is       21.8 secs

     Self-consistent Calculation

     iteration #  1     ecut=    30.00 Ry     beta= 0.40
     Davidson diagonalization with overlap
     ethr =  1.00E-02,  avg # of iterations =  2.0

     Threshold (ethr) on eigenvalues was too large:
     Diagonalizing with lowered threshold

     Davidson diagonalization with overlap
     ethr =  9.08E-04,  avg # of iterations =  2.0

     negative rho (up, down):  3.114E-02 0.000E+00

     total cpu time spent up to now is       34.5 secs

     total energy              =   -8608.61852934 Ry
     estimated scf accuracy    <       2.24780306 Ry

     iteration #  2     ecut=    30.00 Ry     beta= 0.40
     Davidson diagonalization with overlap
     ethr =  9.41E-04,  avg # of iterations =  3.0

     negative rho (up, down):  3.049E-02 0.000E+00

     total cpu time spent up to now is       46.7 secs

     total energy              =   -8608.26199492 Ry
     estimated scf accuracy    <       4.63891948 Ry

     iteration #  3     ecut=    30.00 Ry     beta= 0.40
     Davidson diagonalization with overlap
     ethr =  9.41E-04,  avg # of iterations =  2.0

     negative rho (up, down):  3.057E-02 0.000E+00

     total cpu time spent up to now is       59.0 secs

     total energy              =   -8609.10307640 Ry
     estimated scf accuracy    <       1.62018408 Ry

     iteration #  4     ecut=    30.00 Ry     beta= 0.40
     Davidson diagonalization with overlap
     ethr =  6.78E-04,  avg # of iterations =  1.0

     negative rho (up, down):  3.083E-02 0.000E+00

     total cpu time spent up to now is       71.1 secs

     total energy              =   -8609.10305383 Ry
     estimated scf accuracy    <       0.51021263 Ry

     iteration #  5     ecut=    30.00 Ry     beta= 0.40
     Davidson diagonalization with overlap
     ethr =  2.13E-04,  avg # of iterations =  2.0

     negative rho (up, down):  3.084E-02 0.000E+00

     total cpu time spent up to now is       83.4 secs

     total energy              =   -8609.09663734 Ry
     estimated scf accuracy    <       0.31614106 Ry

     iteration #  6     ecut=    30.00 Ry     beta= 0.40
     Davidson diagonalization with overlap
     ethr =  1.32E-04,  avg # of iterations =  1.0

     negative rho (up, down):  3.077E-02 0.000E+00

     total cpu time spent up to now is       95.7 secs

     total energy              =   -8609.10980845 Ry
     estimated scf accuracy    <       0.04727810 Ry

     iteration #  7     ecut=    30.00 Ry     beta= 0.40
     Davidson diagonalization with overlap
     ethr =  1.98E-05,  avg # of iterations =  8.0

     negative rho (up, down):  3.068E-02 0.000E+00

     total cpu time spent up to now is      108.3 secs

     total energy              =   -8609.10813572 Ry
     estimated scf accuracy    <       0.35463629 Ry

     iteration #  8     ecut=    30.00 Ry     beta= 0.40
     Davidson diagonalization with overlap
     ethr =  1.98E-05,  avg # of iterations =  2.0

     negative rho (up, down):  3.073E-02 0.000E+00

     total cpu time spent up to now is      120.6 secs

     total energy              =   -8609.11495485 Ry
     estimated scf accuracy    <       0.02372252 Ry

     iteration #  9     ecut=    30.00 Ry     beta= 0.40
     Davidson diagonalization with overlap
     ethr =  9.93E-06,  avg # of iterations =  2.0

     negative rho (up, down):  3.069E-02 0.000E+00

     total cpu time spent up to now is      132.8 secs

     total energy              =   -8609.11155963 Ry
     estimated scf accuracy    <       0.22740492 Ry

     iteration # 10     ecut=    30.00 Ry     beta= 0.40
     Davidson diagonalization with overlap
     ethr =  9.93E-06,  avg # of iterations =  2.0

     negative rho (up, down):  3.069E-02 0.000E+00

     total cpu time spent up to now is      145.0 secs

     total energy              =   -8609.11780345 Ry
     estimated scf accuracy    <       0.01281318 Ry

     iteration # 11     ecut=    30.00 Ry     beta= 0.40
     Davidson diagonalization with overlap
     ethr =  5.36E-06,  avg # of iterations =  1.0

     negative rho (up, down):  3.069E-02 0.000E+00

     total cpu time spent up to now is      157.2 secs

     total energy              =   -8609.11802494 Ry
     estimated scf accuracy    <       0.00058987 Ry

     iteration # 12     ecut=    30.00 Ry     beta= 0.40
     Davidson diagonalization with overlap
     ethr =  2.47E-07,  avg # of iterations =  5.0

     negative rho (up, down):  3.067E-02 0.000E+00

     total cpu time spent up to now is      169.6 secs

     total energy              =   -8609.11796431 Ry
     estimated scf accuracy    <       0.00672642 Ry

     iteration # 13     ecut=    30.00 Ry     beta= 0.40
     Davidson diagonalization with overlap
     ethr =  2.47E-07,  avg # of iterations =  2.0

     negative rho (up, down):  3.067E-02 0.000E+00

     total cpu time spent up to now is      181.9 secs

     total energy              =   -8609.11812945 Ry
     estimated scf accuracy    <       0.00016696 Ry

     iteration # 14     ecut=    30.00 Ry     beta= 0.40
     Davidson diagonalization with overlap
     ethr =  6.99E-08,  avg # of iterations =  1.0

     negative rho (up, down):  3.066E-02 0.000E+00

     total cpu time spent up to now is      194.2 secs

     total energy              =   -8609.11813580 Ry
     estimated scf accuracy    <       0.00002787 Ry

     iteration # 15     ecut=    30.00 Ry     beta= 0.40
     Davidson diagonalization with overlap
     ethr =  1.17E-08,  avg # of iterations =  2.0

     negative rho (up, down):  3.066E-02 0.000E+00

     total cpu time spent up to now is      206.5 secs

     total energy              =   -8609.11813831 Ry
     estimated scf accuracy    <       0.00000803 Ry

     iteration # 16     ecut=    30.00 Ry     beta= 0.40
     Davidson diagonalization with overlap
     ethr =  3.36E-09,  avg # of iterations =  3.0

     negative rho (up, down):  3.065E-02 0.000E+00

     total cpu time spent up to now is      218.9 secs

     total energy              =   -8609.11813894 Ry
     estimated scf accuracy    <       0.00000697 Ry

     iteration # 17     ecut=    30.00 Ry     beta= 0.40
     Davidson diagonalization with overlap
     ethr =  2.92E-09,  avg # of iterations =  2.0

     negative rho (up, down):  3.065E-02 0.000E+00

     total cpu time spent up to now is      231.2 secs

     total energy              =   -8609.11813950 Ry
     estimated scf accuracy    <       0.00000047 Ry

     iteration # 18     ecut=    30.00 Ry     beta= 0.40
     Davidson diagonalization with overlap
     ethr =  1.96E-10,  avg # of iterations =  5.0

     negative rho (up, down):  3.065E-02 0.000E+00

     total cpu time spent up to now is      243.5 secs

     total energy              =   -8609.11813958 Ry
     estimated scf accuracy    <       0.00000064 Ry

     iteration # 19     ecut=    30.00 Ry     beta= 0.40
     Davidson diagonalization with overlap
     ethr =  1.96E-10,  avg # of iterations =  2.0

     negative rho (up, down):  3.065E-02 0.000E+00

     total cpu time spent up to now is      255.8 secs

     End of self-consistent calculation

          k = 0.0000 0.0000 0.0000 ( 30179 PWs)   bands (ev):

   -68.2261 -68.2113 -68.1754 -68.1647 -68.1426 -68.1343 -68.1308 -68.1154
   -68.0881 -34.6613 -34.6417 -34.6278 -34.6258 -34.6203 -34.6079 -34.6006
   -34.5931 -34.5871 -34.5749 -34.5033 -34.4958 -34.4857 -34.4697 -34.4672
   -34.4598 -34.4567 -34.4498 -34.4403 -34.4190 -34.4150 -34.4125 -34.4027
   -34.3997 -34.3873 -34.3780 -34.3585 -17.6890 -17.6887 -17.6346 -17.6257
   -17.6195 -13.8278 -12.9263 -12.6148 -12.5891 -12.5829 -12.5767 -12.5533
   -12.3787 -12.1744 -12.1554 -12.1180 -12.0818 -12.0502 -12.0450 -11.9541
   -11.9461 -11.7982 -11.7935  -8.7465  -5.3473  -4.9716  -4.9631  -4.8649
    -4.8431  -4.8318  -4.8200  -4.5858  -4.5677  -4.4427  -4.4206  -4.3189
    -4.2454  -4.2032  -4.1931  -4.1778  -4.0604  -4.0336  -3.9888  -3.6633
    -3.5631  -3.5566  -3.5066  -3.4776  -3.4687  -2.9519  -2.9388  -2.9059
    -2.8946  -2.8788  -2.8636  -2.8330  -2.7690  -2.7256  -2.7076  -2.6572
    -2.6425  -2.5540  -2.5424  -1.9915  -1.8228  -1.8004  -1.7823  -1.6962
    -1.6751  -1.6358  -1.3858  -1.3182  -1.2835  -1.1746  -1.1515  -1.1321
    -0.2408  -0.1735  -0.1190  -0.1107  -0.0401   0.0684   0.3094   0.3324
     0.4365   0.4552   1.0398   1.0641   1.1410   1.7369   2.0773   2.0910
     2.3156   2.4004   2.4529   2.4848   2.6996   2.7325   2.7617   2.8562
     2.9022   2.9381   2.9771   3.0038   3.0521   3.0928   3.2332   3.4967

     the Fermi energy is     0.3538 ev

!    total energy              =   -8609.11813959 Ry
     total all-electron energy =   -337024.825242 Ry
     estimated scf accuracy    <       0.00000007 Ry
     smearing contrib. (-TS)   =      -0.00466068 Ry
     internal energy E=F+TS    =   -8609.11347891 Ry

     The total energy is F=E-TS. E is the sum of the following terms:
     one-electron contribution =   -7100.93553633 Ry
     hartree contribution      =    3583.27066162 Ry
     xc contribution           =    -490.28197013 Ry
     ewald contribution        =    2278.08488789 Ry
     one-center paw contrib.   =   -6879.25152197 Ry

     convergence has been achieved in  19 iterations

     negative rho (up, down):  3.065E-02 0.000E+00

     Forces acting on atoms (cartesian axes, Ry/au):

     atom    1 type  2   force =    -0.00065963   -0.00222349   -0.00599971
     atom    2 type  2   force =    -0.00258920    0.00248694   -0.00119772
     atom    3 type  2   force =    -0.00304160   -0.00013047    0.00329616
     atom    4 type  2   force =    -0.00316264   -0.00037161    0.00102131
     atom    5 type  2   force =    -0.00288925    0.00035503    0.00230573
     atom    6 type  2   force =     0.00455189   -0.00069271   -0.00145922
     atom    7 type  2   force =     0.00424246    0.00441343    0.00466775
     atom    8 type  2   force =    -0.00253122    0.00134490   -0.00464574
     atom    9 type  2   force =     0.00191867   -0.00262381    0.00579663
     atom   10 type  2   force =    -0.00568653    0.00450359    0.00560437
     atom   11 type  2   force =    -0.00125545    0.00891710   -0.00722672
     atom   12 type  2   force =     0.00266813   -0.00376454    0.00582030
     atom   13 type  2   force =     0.00429826    0.00205488   -0.00575986
     atom   14 type  2   force =    -0.00430005   -0.00456760   -0.00457574
     atom   15 type  2   force =     0.00305659   -0.00611184    0.00488042
     atom   16 type  2   force =    -0.00244546   -0.00192600    0.03212835
     atom   17 type  2   force =     0.00075822   -0.00017812    0.00652101
     atom   18 type  2   force =     0.00019219   -0.00777163   -0.00484604
     atom   19 type  3   force =     0.01649041   -0.00418805    0.00390515
     atom   20 type  3   force =    -0.00060573   -0.00073235   -0.00142468
     atom   21 type  3   force =    -0.00020964    0.00704147    0.00131238
     atom   22 type  3   force =    -0.00645599   -0.00928294    0.00648252
     atom   23 type  3   force =    -0.00211015    0.00514043    0.00196191
     atom   24 type  3   force =     0.00596824   -0.00975887    0.00091899
     atom   25 type  3   force =     0.00141758   -0.00311399   -0.00172740
     atom   26 type  3   force =    -0.00985878    0.00962415   -0.00205247
     atom   27 type  3   force =     0.00212930    0.01154331    0.00416816
     atom   28 type  1   force =     0.00010938    0.00001281   -0.04987582

     Total force =     0.073704     Total SCF correction =     0.001185


     Computing stress (Cartesian axis) and pressure


     negative rho (up, down):  3.065E-02 0.000E+00
          total   stress  (Ry/bohr**3)                   (kbar)     P=      -66.96
  -0.00043486   0.00000439  -0.00000063          -63.97        0.65       -0.09
   0.00000439  -0.00044105  -0.00000106            0.65      -64.88       -0.16
  -0.00000063  -0.00000106  -0.00048959           -0.09       -0.16      -72.02


     Writing all to output data dir /root/qe_scratch/cand267_A_TaS2_Pb.save/ :
     XML data file, charge density, pseudopotentials, collected wavefunctions
 
     init_run     :     16.05s CPU     20.80s WALL (       1 calls)
     electrons    :    189.98s CPU    234.00s WALL (       1 calls)
     forces       :      0.34s CPU      0.35s WALL (       1 calls)
     stress       :      0.81s CPU      0.85s WALL (       1 calls)

     Called by init_run:
     wfcinit      :      0.21s CPU      0.41s WALL (       1 calls)
     potinit      :     15.07s CPU     19.36s WALL (       1 calls)
     hinit0       :      0.52s CPU      0.61s WALL (       1 calls)

     Called by electrons:
     c_bands      :      5.02s CPU      5.05s WALL (      20 calls)
     sum_band     :      1.81s CPU      1.82s WALL (      20 calls)
     v_of_rho     :      1.48s CPU      1.98s WALL (      20 calls)
     newd         :      1.07s CPU      1.16s WALL (      20 calls)
                                        1.16s GPU  (      20 calls)
     PAW_pot      :    187.14s CPU    232.24s WALL (      20 calls)
     mix_rho      :      0.66s CPU      0.71s WALL (      20 calls)

     Called by c_bands:
     init_us_2    :      0.05s CPU      0.05s WALL (      41 calls)
     cegterg      :      4.86s CPU      4.88s WALL (      20 calls)

     Called by *egterg:
     cdiaghg      :      0.63s CPU      0.66s WALL (      69 calls)
                                        0.66s GPU  (      69 calls)
     h_psi        :      2.31s CPU      2.49s WALL (      71 calls)
                                        2.49s GPU  (      71 calls)
     s_psi        :      0.09s CPU      0.09s WALL (      71 calls)
     g_psi        :      0.00s CPU      0.01s WALL (      50 calls)
                                        0.01s GPU  (      50 calls)

     Called by h_psi:
     h_psi:calbec :      0.09s CPU      0.81s WALL (      71 calls)
                                        0.81s GPU  (      71 calls)
     vloc_psi     :      1.04s CPU      1.05s WALL (      71 calls)
                                        1.05s GPU  (      71 calls)
     add_vuspsi   :      0.09s CPU      0.62s WALL (      71 calls)
                                        0.61s GPU  (      71 calls)

     General routines
     calbec       :      0.09s CPU      0.25s WALL (      96 calls)
     fft          :      5.33s CPU      7.44s WALL (     284 calls)
                                        0.04s GPU  (     264 calls)
     ffts         :      2.05s CPU      2.49s WALL (      40 calls)
                                        0.00s GPU  (      20 calls)
     fftw         :      0.02s CPU      1.05s WALL (    1018 calls)
                                        1.04s GPU  (    1018 calls)
     interpolate  :      7.47s CPU      9.99s WALL (      20 calls)
 
     Parallel routines
 
     PWSCF        :   3m28.32s CPU   4m17.28s WALL

 
   This run was terminated on:   4:40:26   7May2026            

=------------------------------------------------------------------------------=
   JOB DONE.
=------------------------------------------------------------------------------=
Warning: ieee_invalid is signaling
Warning: ieee_divide_by_zero is signaling
Warning: ieee_inexact is signaling
FORTRAN STOP
