--------------------------------------------------------------------------
WARNING: Open MPI tried to bind a process but failed.  This is a
warning only; your job will continue, though performance may
be degraded.

  Local host:        3253031b5b37
  Application name:  /root/qe-7.3.1/bin/pw.x
  Error message:     failed to bind memory
  Location:          ../../../../../orte/mca/rtc/hwloc/rtc_hwloc.c:447

--------------------------------------------------------------------------

     Program PWSCF v.7.3.1 starts on  7May2026 at  2: 4:25 

     This program is part of the open-source Quantum ESPRESSO suite
     for quantum simulation of materials; please cite
         "P. Giannozzi et al., J. Phys.:Condens. Matter 21 395502 (2009);
         "P. Giannozzi et al., J. Phys.:Condens. Matter 29 465901 (2017);
         "P. Giannozzi et al., J. Chem. Phys. 152 154105 (2020);
          URL http://www.quantum-espresso.org", 
     in publications or presentations arising from this work. More details at
     http://www.quantum-espresso.org/quote

     Parallel version (MPI & OpenMP), running on       8 processor cores
     Number of MPI processes:                 1
     Threads/MPI process:                     8

     MPI processes distributed on     1 nodes
     91761 MiB available memory on the printing compute node when the environment starts
 
     Reading input from cand010_B_MoS2_La.in

     Current dimensions of program PWSCF are:
     Max number of different atomic species (ntypx) = 10
     Max number of k-points (npk) =  40000
     Max angular momentum in pseudopotentials (lmaxx) =  4
     file La.UPF: wavefunction(s)  5S 5D 4F renormalized
     file Mo.UPF: wavefunction(s)  4S 4D renormalized
     file S.UPF: wavefunction(s)  3S 3P renormalized
 
     Subspace diagonalization in iterative solution of the eigenvalue problem:
     a serial algorithm will be used

 
     G-vector sticks info
     --------------------
     sticks:   dense  smooth     PW     G-vecs:    dense   smooth      PW
     Sum        7171    4765   1189               701001   381131   47567
 
     Using Slab Decomposition
 


     bravais-lattice index     =            0
     lattice parameter (alat)  =      24.0681  a.u.
     unit-cell volume          =   17184.6281 (a.u.)^3
     number of atoms/cell      =           49
     number of atomic types    =            3
     number of electrons       =       427.00
     number of Kohn-Sham states=          257
     kinetic-energy cutoff     =      30.0000  Ry
     charge density cutoff     =     180.0000  Ry
     scf convergence threshold =      1.0E-07
     mixing beta               =       0.4000
     number of iterations used =            8  plain     mixing
     Exchange-correlation= SLA  PW   PBX  PBC
                           (   1   4   3   4   0   0   0)

     GPU acceleration is ACTIVE.  1 visible GPUs per MPI rank


     celldm(1)=  24.068055  celldm(2)=   0.000000  celldm(3)=   0.000000
     celldm(4)=   0.000000  celldm(5)=   0.000000  celldm(6)=   0.000000

     crystal axes: (cart. coord. in units of alat)
               a(1) = (   1.000000   0.000000   0.000000 )  
               a(2) = (  -0.500000   0.866025   0.000000 )  
               a(3) = (   0.000000   0.000000   1.423267 )  

     reciprocal axes: (cart. coord. in units 2 pi/alat)
               b(1) = (  1.000000  0.577350 -0.000000 )  
               b(2) = (  0.000000  1.154701  0.000000 )  
               b(3) = (  0.000000 -0.000000  0.702609 )  


     PseudoPot. # 1 for La read from file:
     /root/qe_pseudos/La.UPF
     MD5 check sum: 6e6ac421535d279511fd22156ed99225
     Pseudo is Projector augmented-wave + core cor, Zval = 11.0
     Generated using &quot;atomic&quot; code by A. Dal Corso  v.6.2.2
     Shape of augmentation charge: PSQ
     Using radial grid of 1253 points,  8 beta functions with: 
                l(1) =   0
                l(2) =   0
                l(3) =   1
                l(4) =   1
                l(5) =   2
                l(6) =   2
                l(7) =   3
                l(8) =   3
     Q(r) pseudized with 0 coefficients 


     PseudoPot. # 2 for Mo read from file:
     /root/qe_pseudos/Mo.UPF
     MD5 check sum: 4396e0c640fcce5c25f020efccf1ab12
     Pseudo is Projector augmented-wave + core cor, Zval = 14.0
     Generated using &quot;atomic&quot; code by A. Dal Corso  v.6.3
     Shape of augmentation charge: PSQ
     Using radial grid of 1229 points,  6 beta functions with: 
                l(1) =   0
                l(2) =   0
                l(3) =   1
                l(4) =   1
                l(5) =   2
                l(6) =   2
     Q(r) pseudized with 0 coefficients 


     PseudoPot. # 3 for S  read from file:
     /root/qe_pseudos/S.UPF
     MD5 check sum: fb45dfebcf3e72a4e1bd4a866ec2e262
     Pseudo is Projector augmented-wave + core cor, Zval =  6.0
     Generated using &quot;atomic&quot; code by A. Dal Corso  v.6.3
     Shape of augmentation charge: PSQ
     Using radial grid of 1151 points,  6 beta functions with: 
                l(1) =   0
                l(2) =   0
                l(3) =   1
                l(4) =   1
                l(5) =   2
                l(6) =   2
     Q(r) pseudized with 0 coefficients 


     atomic species   valence    mass     pseudopotential
     La               11.00   138.90550     La( 1.00)
     Mo               14.00    95.95000     Mo( 1.00)
     S                 6.00    32.06000     S ( 1.00)

     No symmetry found



   Cartesian axes

     site n.     atom                  positions (alat units)
         1        Mo     tau(   1) = (   0.0008666   0.0004204   0.7134354  )
         2        Mo     tau(   2) = (   0.3747463   0.6493846   0.7116916  )
         3        Mo     tau(   3) = (   0.4999926   0.4330519   0.7117050  )
         4        Mo     tau(   4) = (   0.6250365   0.2164736   0.7117001  )
         5        Mo     tau(   5) = (   0.7497492  -0.0001717   0.7117034  )
         6        Mo     tau(   6) = (   0.1249523   0.6494789   0.7116088  )
         7        Mo     tau(   7) = (   0.2499757   0.4333563   0.7116221  )
         8        Mo     tau(   8) = (   0.3749210   0.2165117   0.7119441  )
         9        Mo     tau(   9) = (  -0.1248800   0.6494398   0.7116805  )
        10        Mo     tau(  10) = (  -0.0000047   0.4331672   0.7116526  )
        11        Mo     tau(  11) = (   0.1245487   0.2163856   0.7114235  )
        12        Mo     tau(  12) = (   0.2495223  -0.0003262   0.7118230  )
        13        Mo     tau(  13) = (   0.5002926  -0.0002084   0.7116553  )
        14        Mo     tau(  14) = (  -0.2499725   0.4330288   0.7116914  )
        15        Mo     tau(  15) = (  -0.3747920   0.6496955   0.7118446  )
        16        Mo     tau(  16) = (  -0.1247608   0.2166292   0.7118390  )
        17        S      tau(  17) = (   0.0002043   0.2886488   0.5889857  )
        18        S      tau(  18) = (   0.2498165   0.7215615   0.8342265  )
        19        S      tau(  19) = (   0.2500324   0.7216971   0.5889811  )
        20        S      tau(  20) = (  -0.0000450   0.2886752   0.8346729  )
        21        S      tau(  21) = (   0.8743061   0.0725481   0.8347672  )
        22        S      tau(  22) = (   0.8758322   0.0716749   0.5899474  )
        23        S      tau(  23) = (   0.7499864   0.2887645   0.8342709  )
        24        S      tau(  24) = (   0.7502145   0.2885502   0.5891522  )
        25        S      tau(  25) = (   0.1247702   0.0719297   0.5896662  )
        26        S      tau(  26) = (   0.6250568   0.5051485   0.8342452  )
        27        S      tau(  27) = (   0.6249973   0.5054204   0.5891595  )
        28        S      tau(  28) = (   0.1257564   0.0728174   0.8382101  )
        29        S      tau(  29) = (   0.4999813   0.7208857   0.8347528  )
        30        S      tau(  30) = (   0.3750549   0.5052521   0.5889801  )
        31        S      tau(  31) = (   0.3750202   0.5051439   0.8343908  )
        32        S      tau(  32) = (   0.3753295   0.0720825   0.8345750  )
        33        S      tau(  33) = (   0.4997737   0.2885295   0.5892336  )
        34        S      tau(  34) = (   0.3747001   0.0720229   0.5896356  )
        35        S      tau(  35) = (  -0.2500388   0.7215531   0.8345905  )
        36        S      tau(  36) = (   0.2499309   0.2889685   0.8345251  )
        37        S      tau(  37) = (   0.2498917   0.2886196   0.5893848  )
        38        S      tau(  38) = (   0.1249625   0.5053095   0.8342095  )
        39        S      tau(  39) = (   0.1249637   0.5051144   0.5889554  )
        40        S      tau(  40) = (  -0.2498896   0.7221234   0.5891447  )
        41        S      tau(  41) = (  -0.1249951   0.5052025   0.5890389  )
        42        S      tau(  42) = (  -0.0000859   0.7216803   0.5889732  )
        43        S      tau(  43) = (   0.4999991   0.7226580   0.5898730  )
        44        S      tau(  44) = (   0.6249865   0.0721814   0.8344182  )
        45        S      tau(  45) = (   0.6250751   0.0721613   0.5889742  )
        46        S      tau(  46) = (  -0.1250348   0.5051447   0.8343199  )
        47        S      tau(  47) = (   0.5001055   0.2887428   0.8342761  )
        48        S      tau(  48) = (   0.0001116   0.7215656   0.8342131  )
        49        La     tau(  49) = (   0.1240359   0.0713317   1.0251877  )

     number of k points=     1  Methfessel-Paxton smearing, width (Ry)=  0.0100
                       cart. coord. in units 2pi/alat
        k(    1) = (   0.0000000   0.0000000   0.0000000), wk =   2.0000000

     Dense  grid:   701001 G-vectors     FFT dimensions: ( 108, 108, 150)

     Smooth grid:   381131 G-vectors     FFT dimensions: (  90,  90, 120)

     Estimated max dynamical RAM per process >       8.05 GB

 %%%%%%%%%%%%%%%%%%%%%%%%%%%%%%%%%%%%%%%%%%%%%%%%%%%%%%%%%%%%%%%%%%%%%%%%%%%%%%
     Error in routine  ylmr2 (15):
     l too large, or wrong number of Ylm required
 %%%%%%%%%%%%%%%%%%%%%%%%%%%%%%%%%%%%%%%%%%%%%%%%%%%%%%%%%%%%%%%%%%%%%%%%%%%%%%

     stopping ...
--------------------------------------------------------------------------
MPI_ABORT was invoked on rank 0 in communicator MPI_COMM_WORLD
with errorcode 15.

NOTE: invoking MPI_ABORT causes Open MPI to kill all MPI processes.
You may or may not see output from other processes, depending on
exactly when Open MPI kills them.
--------------------------------------------------------------------------
