--------------------------------------------------------------------------
WARNING: Open MPI tried to bind a process but failed.  This is a
warning only; your job will continue, though performance may
be degraded.

  Local host:        3253031b5b37
  Application name:  /root/qe-7.3.1/bin/pw.x
  Error message:     failed to bind memory
  Location:          ../../../../../orte/mca/rtc/hwloc/rtc_hwloc.c:447

--------------------------------------------------------------------------

     Program PWSCF v.7.3.1 starts on  6May2026 at 11:54:38 

     This program is part of the open-source Quantum ESPRESSO suite
     for quantum simulation of materials; please cite
         "P. Giannozzi et al., J. Phys.:Condens. Matter 21 395502 (2009);
         "P. Giannozzi et al., J. Phys.:Condens. Matter 29 465901 (2017);
         "P. Giannozzi et al., J. Chem. Phys. 152 154105 (2020);
          URL http://www.quantum-espresso.org", 
     in publications or presentations arising from this work. More details at
     http://www.quantum-espresso.org/quote

     Parallel version (MPI & OpenMP), running on       8 processor cores
     Number of MPI processes:                 1
     Threads/MPI process:                     8

     MPI processes distributed on     1 nodes
     84604 MiB available memory on the printing compute node when the environment starts
 
     Reading input from cand004_A_SnS2_Ir.in

     Current dimensions of program PWSCF are:
     Max number of different atomic species (ntypx) = 10
     Max number of k-points (npk) =  40000
     Max angular momentum in pseudopotentials (lmaxx) =  4
     file Ir.UPF: wavefunction(s)  5f renormalized
     file S.UPF: wavefunction(s)  3S 3P renormalized
     file Sn.UPF: wavefunction(s)  5S 4D renormalized
 
     Subspace diagonalization in iterative solution of the eigenvalue problem:
     a serial algorithm will be used

 
     G-vector sticks info
     --------------------
     sticks:   dense  smooth     PW     G-vecs:    dense   smooth      PW
     Sum        5197    3463    859               509859   277387   34603
 
     Using Slab Decomposition
 


     bravais-lattice index     =            0
     lattice parameter (alat)  =      20.4672  a.u.
     unit-cell volume          =   12496.6279 (a.u.)^3
     number of atoms/cell      =           28
     number of atomic types    =            3
     number of electrons       =       243.00
     number of Kohn-Sham states=          146
     kinetic-energy cutoff     =      30.0000  Ry
     charge density cutoff     =     180.0000  Ry
     scf convergence threshold =      1.0E-07
     mixing beta               =       0.4000
     number of iterations used =            8  plain     mixing
     Exchange-correlation= PBE
                           (   1   4   3   4   0   0   0)

     GPU acceleration is ACTIVE.  1 visible GPUs per MPI rank


     celldm(1)=  20.467172  celldm(2)=   0.000000  celldm(3)=   0.000000
     celldm(4)=   0.000000  celldm(5)=   0.000000  celldm(6)=   0.000000

     crystal axes: (cart. coord. in units of alat)
               a(1) = (   1.000000   0.000000   0.000000 )  
               a(2) = (  -0.500000   0.866025   0.000000 )  
               a(3) = (   0.000000   0.000000   1.683018 )  

     reciprocal axes: (cart. coord. in units 2 pi/alat)
               b(1) = (  1.000000  0.577350 -0.000000 )  
               b(2) = (  0.000000  1.154701  0.000000 )  
               b(3) = (  0.000000 -0.000000  0.594171 )  


     PseudoPot. # 1 for Ir read from file:
     /root/qe_pseudos/Ir.UPF
     MD5 check sum: 43543c89383571b4720bfbfb15a0b238
     Pseudo is Norm-conserving, Zval =  9.0
     Generated using FHI98PP, converted with fhi2upf.x v.5.0.2
     Using radial grid of  565 points,  3 beta functions with: 
                l(1) =   0
                l(2) =   2
                l(3) =   3

     PseudoPot. # 2 for S  read from file:
     /root/qe_pseudos/S.UPF
     MD5 check sum: fb45dfebcf3e72a4e1bd4a866ec2e262
     Pseudo is Projector augmented-wave + core cor, Zval =  6.0
     Generated using &quot;atomic&quot; code by A. Dal Corso  v.6.3
     Shape of augmentation charge: PSQ
     Using radial grid of 1151 points,  6 beta functions with: 
                l(1) =   0
                l(2) =   0
                l(3) =   1
                l(4) =   1
                l(5) =   2
                l(6) =   2
     Q(r) pseudized with 0 coefficients 


     PseudoPot. # 3 for Sn read from file:
     /root/qe_pseudos/Sn.UPF
     MD5 check sum: 72e22d5a9e1ec4fde6a02e1f963898e9
     Pseudo is Ultrasoft + core correction, Zval = 14.0
     Generated using &quot;atomic&quot; code by A. Dal Corso  v.6.3
     Using radial grid of 1243 points,  6 beta functions with: 
                l(1) =   0
                l(2) =   0
                l(3) =   1
                l(4) =   1
                l(5) =   2
                l(6) =   2
     Q(r) pseudized with 0 coefficients 


     atomic species   valence    mass     pseudopotential
     Ir                9.00   192.21700     Ir( 1.00)
     S                 6.00    32.06000     S ( 1.00)
     Sn               14.00   118.71000     Sn( 1.00)

     No symmetry found



   Cartesian axes

     site n.     atom                  positions (alat units)
         1        S      tau(   1) = (   0.4900215   0.6588854   0.9985058  )
         2        S      tau(   2) = (   0.6538486   0.3745269   0.6834131  )
         3        S      tau(   3) = (   0.6537706   0.3750821   0.9996569  )
         4        S      tau(   4) = (   0.8128499   0.0820383   0.6726769  )
         5        S      tau(   5) = (   0.8125010   0.0813966   1.0112085  )
         6        S      tau(   6) = (   0.1665749   0.6751931   0.6901494  )
         7        S      tau(   7) = (   0.1666139   0.6751546   0.9924514  )
         8        S      tau(   8) = (   0.3278882   0.3829211   0.6923310  )
         9        S      tau(   9) = (   0.4898790   0.6587225   0.6843490  )
        10        S      tau(  10) = (   0.5023913   0.0962806   0.6905868  )
        11        S      tau(  11) = (   0.3273763   0.3832119   0.9904406  )
        12        S      tau(  12) = (  -0.1619037   0.6807095   0.6918187  )
        13        S      tau(  13) = (  -0.1615245   0.6799063   0.9918001  )
        14        S      tau(  14) = (  -0.0029154   0.3945453   0.6909524  )
        15        S      tau(  15) = (  -0.0023662   0.3945489   0.9914137  )
        16        S      tau(  16) = (   0.1829372   0.1026428   0.6875176  )
        17        S      tau(  17) = (   0.1824803   0.1023541   0.9950766  )
        18        S      tau(  18) = (   0.5021559   0.0966926   0.9930255  )
        19        Sn     tau(  19) = (   0.1686614   0.2852875   0.8412727  )
        20        Sn     tau(  20) = (   0.3448997   0.0032323   0.8413894  )
        21        Sn     tau(  21) = (   0.0058242   0.5909833   0.8413370  )
        22        Sn     tau(  22) = (  -0.3320475   0.5795064   0.8414597  )
        23        Sn     tau(  23) = (   0.6617638  -0.0015783   0.8415873  )
        24        Sn     tau(  24) = (   0.4974670   0.2854003   0.8414638  )
        25        Sn     tau(  25) = (  -0.1785087   0.3669810   0.8417125  )
        26        Sn     tau(  26) = (   0.3307502   0.5746836   0.8413294  )
        27        Sn     tau(  27) = (   0.0621188  -0.0444636   0.8414465  )
        28        Ir     tau(  28) = (  -0.0868409   0.1357718   0.8418753  )

     number of k points=     1  Methfessel-Paxton smearing, width (Ry)=  0.0100
                       cart. coord. in units 2pi/alat
        k(    1) = (   0.0000000   0.0000000   0.0000000), wk =   2.0000000

     Dense  grid:   509859 G-vectors     FFT dimensions: (  90,  90, 150)

     Smooth grid:   277387 G-vectors     FFT dimensions: (  72,  72, 125)

     Estimated max dynamical RAM per process >       2.56 GB

     Check: negative core charge=   -0.000003

     Initial potential from superposition of free atoms

     starting charge     242.9866, renormalised to     243.0000

     negative rho (up, down):  2.651E-02 0.000E+00
     Starting wfcs are  169 randomized atomic wfcs
     Checking if some PAW data can be deallocated... 

     total cpu time spent up to now is       15.8 secs

     Self-consistent Calculation

     iteration #  1     ecut=    30.00 Ry     beta= 0.40
     Davidson diagonalization with overlap
     ethr =  1.00E-02,  avg # of iterations =  4.0

     negative rho (up, down):  2.558E-02 0.000E+00

     total cpu time spent up to now is       23.9 secs

     total energy              =   -2693.23365614 Ry
     estimated scf accuracy    <       3.95768817 Ry

     iteration #  2     ecut=    30.00 Ry     beta= 0.40
     Davidson diagonalization with overlap
     ethr =  1.63E-03,  avg # of iterations =  3.0

     negative rho (up, down):  2.588E-02 0.000E+00

     total cpu time spent up to now is       31.9 secs

     total energy              =   -2692.75743549 Ry
     estimated scf accuracy    <      19.20366712 Ry

     iteration #  3     ecut=    30.00 Ry     beta= 0.40
     Davidson diagonalization with overlap
     ethr =  1.63E-03,  avg # of iterations =  3.0

     negative rho (up, down):  2.592E-02 0.000E+00

     total cpu time spent up to now is       40.0 secs

     total energy              =   -2694.57776923 Ry
     estimated scf accuracy    <       1.43171392 Ry

     iteration #  4     ecut=    30.00 Ry     beta= 0.40
     Davidson diagonalization with overlap
     ethr =  5.89E-04,  avg # of iterations =  2.0

     negative rho (up, down):  2.576E-02 0.000E+00

     total cpu time spent up to now is       48.0 secs

     total energy              =   -2694.63384625 Ry
     estimated scf accuracy    <       0.25385692 Ry

     iteration #  5     ecut=    30.00 Ry     beta= 0.40
     Davidson diagonalization with overlap
     ethr =  1.04E-04,  avg # of iterations =  6.0

     negative rho (up, down):  2.562E-02 0.000E+00

     total cpu time spent up to now is       56.2 secs

     total energy              =   -2694.66324261 Ry
     estimated scf accuracy    <       0.37442359 Ry

     iteration #  6     ecut=    30.00 Ry     beta= 0.40
     Davidson diagonalization with overlap
     ethr =  1.04E-04,  avg # of iterations =  2.0

     negative rho (up, down):  2.558E-02 0.000E+00

     total cpu time spent up to now is       64.1 secs

     total energy              =   -2694.66800516 Ry
     estimated scf accuracy    <       0.11853927 Ry

     iteration #  7     ecut=    30.00 Ry     beta= 0.40
     Davidson diagonalization with overlap
     ethr =  4.88E-05,  avg # of iterations =  2.0

     negative rho (up, down):  2.537E-02 0.000E+00

     total cpu time spent up to now is       72.2 secs

     total energy              =   -2694.66789907 Ry
     estimated scf accuracy    <       0.24883668 Ry

     iteration #  8     ecut=    30.00 Ry     beta= 0.40
     Davidson diagonalization with overlap
     ethr =  4.88E-05,  avg # of iterations =  2.0

     negative rho (up, down):  2.521E-02 0.000E+00

     total cpu time spent up to now is       80.3 secs

     total energy              =   -2694.68196474 Ry
     estimated scf accuracy    <       0.04635641 Ry

     iteration #  9     ecut=    30.00 Ry     beta= 0.40
     Davidson diagonalization with overlap
     ethr =  1.91E-05,  avg # of iterations =  8.0

     negative rho (up, down):  2.515E-02 0.000E+00

     total cpu time spent up to now is       88.6 secs

     total energy              =   -2694.68203385 Ry
     estimated scf accuracy    <       0.02016030 Ry

     iteration # 10     ecut=    30.00 Ry     beta= 0.40
     Davidson diagonalization with overlap
     c_bands:  3 eigenvalues not converged
     ethr =  8.30E-06,  avg # of iterations = 20.0

     negative rho (up, down):  2.515E-02 0.000E+00

     total cpu time spent up to now is       97.0 secs

     total energy              =   -2694.68264981 Ry
     estimated scf accuracy    <       0.00275264 Ry

     iteration # 11     ecut=    30.00 Ry     beta= 0.40
     Davidson diagonalization with overlap
     ethr =  1.13E-06,  avg # of iterations = 14.0

     negative rho (up, down):  2.517E-02 0.000E+00

     total cpu time spent up to now is      105.5 secs

     total energy              =   -2694.68280113 Ry
     estimated scf accuracy    <       0.00074910 Ry

     iteration # 12     ecut=    30.00 Ry     beta= 0.40
     Davidson diagonalization with overlap
     ethr =  3.08E-07,  avg # of iterations =  2.0

     negative rho (up, down):  2.516E-02 0.000E+00

     total cpu time spent up to now is      113.4 secs

     total energy              =   -2694.68283989 Ry
     estimated scf accuracy    <       0.00028572 Ry

     iteration # 13     ecut=    30.00 Ry     beta= 0.40
     Davidson diagonalization with overlap
     ethr =  1.18E-07,  avg # of iterations =  2.0

     negative rho (up, down):  2.516E-02 0.000E+00

     total cpu time spent up to now is      121.4 secs

     total energy              =   -2694.68286822 Ry
     estimated scf accuracy    <       0.00027097 Ry

     iteration # 14     ecut=    30.00 Ry     beta= 0.40
     Davidson diagonalization with overlap
     ethr =  1.12E-07,  avg # of iterations =  1.0

     negative rho (up, down):  2.515E-02 0.000E+00

     total cpu time spent up to now is      129.3 secs

     total energy              =   -2694.68288296 Ry
     estimated scf accuracy    <       0.00001191 Ry

     iteration # 15     ecut=    30.00 Ry     beta= 0.40
     Davidson diagonalization with overlap
     ethr =  4.90E-09,  avg # of iterations =  3.0

     negative rho (up, down):  2.515E-02 0.000E+00

     total cpu time spent up to now is      137.4 secs

     total energy              =   -2694.68288456 Ry
     estimated scf accuracy    <       0.00000535 Ry

     iteration # 16     ecut=    30.00 Ry     beta= 0.40
     Davidson diagonalization with overlap
     ethr =  2.20E-09,  avg # of iterations =  2.0

     negative rho (up, down):  2.515E-02 0.000E+00

     total cpu time spent up to now is      145.4 secs

     total energy              =   -2694.68288509 Ry
     estimated scf accuracy    <       0.00000147 Ry

     iteration # 17     ecut=    30.00 Ry     beta= 0.40
     Davidson diagonalization with overlap
     ethr =  6.06E-10,  avg # of iterations =  2.0

     negative rho (up, down):  2.515E-02 0.000E+00

     total cpu time spent up to now is      153.4 secs

     total energy              =   -2694.68288523 Ry
     estimated scf accuracy    <       0.00000178 Ry

     iteration # 18     ecut=    30.00 Ry     beta= 0.40
     Davidson diagonalization with overlap
     ethr =  6.06E-10,  avg # of iterations =  1.0

     negative rho (up, down):  2.515E-02 0.000E+00

     total cpu time spent up to now is      161.4 secs

     total energy              =   -2694.68288532 Ry
     estimated scf accuracy    <       0.00000041 Ry

     iteration # 19     ecut=    30.00 Ry     beta= 0.40
     Davidson diagonalization with overlap
     ethr =  1.70E-10,  avg # of iterations =  2.0

     negative rho (up, down):  2.515E-02 0.000E+00

     total cpu time spent up to now is      169.3 secs

     End of self-consistent calculation

          k = 0.0000 0.0000 0.0000 ( 34603 PWs)   bands (ev):

   -23.1365 -22.9833 -22.9557 -22.9355 -22.9104 -22.8882 -22.8837 -22.8794
   -22.8659 -22.8647 -22.8639 -22.8477 -22.8375 -22.8281 -22.8271 -22.8193
   -22.8127 -22.8101 -22.8071 -22.8030 -22.8029 -22.7984 -22.7869 -22.7824
   -22.7752 -22.7744 -22.7607 -22.7585 -22.7545 -22.7443 -22.7434 -22.7404
   -22.7359 -22.7241 -22.7187 -22.7134 -22.7070 -22.7040 -22.6865 -22.6798
   -22.5990 -22.5667 -22.5537 -22.5437 -22.4926 -15.5405 -14.5942 -14.5492
   -14.5452 -14.4542 -14.3503 -14.1361 -13.9877 -13.6543 -13.5771 -13.5518
   -13.2924 -13.2076 -13.1639 -13.0402 -12.9805 -12.6419 -12.6339  -9.2372
    -8.9191  -8.8946  -8.6509  -8.4459  -8.3614  -8.1651  -8.0614  -7.8502
    -6.3217  -6.0728  -5.8470  -5.7583  -5.7135  -5.6867  -5.5601  -5.4388
    -5.3995  -5.3513  -5.3371  -5.2753  -5.2010  -5.1026  -5.0013  -4.9957
    -4.9742  -4.8724  -4.7349  -4.6123  -4.3587  -4.1527  -4.0411  -3.9248
    -3.8744  -3.6462  -3.5766  -3.4250  -3.1747  -2.9552  -2.8742  -2.7696
    -2.7242  -2.6724  -2.5253  -2.4575  -2.3674  -2.3519  -2.2655  -2.2456
    -2.1191  -2.0729  -2.0316  -2.0063  -1.7551  -1.7305  -1.5286  -1.4886
    -1.1088  -1.0801  -1.0651  -0.9189  -0.7121  -0.4240  -0.3688  -0.2792
    -0.2247  -0.1756  -0.0561   0.0248   1.0011   1.0928   1.3019   1.4619
     1.6443   2.1127   2.1850   2.6022   2.9698   3.1412   3.2165   3.4649
     3.5184   3.5487

     the Fermi energy is    -1.0826 ev

!    total energy              =   -2694.68288528 Ry
     estimated scf accuracy    <       0.00000010 Ry
     smearing contrib. (-TS)   =      -0.00672967 Ry
     internal energy E=F+TS    =   -2694.67615561 Ry

     The total energy is F=E-TS. E is the sum of the following terms:
     one-electron contribution =   -7363.12176828 Ry
     hartree contribution      =    3753.82063789 Ry
     xc contribution           =    -531.56330340 Ry
     ewald contribution        =    2276.62780648 Ry
     one-center paw contrib.   =    -830.43952830 Ry

     convergence has been achieved in  19 iterations

     negative rho (up, down):  2.515E-02 0.000E+00

     Forces acting on atoms (cartesian axes, Ry/au):

     atom    1 type  2   force =     0.02394697   -0.00170497   -0.01559419
     atom    2 type  2   force =     0.00008288    0.00210646    0.00253824
     atom    3 type  2   force =    -0.00018347    0.00175219   -0.00217576
     atom    4 type  2   force =    -0.01186215   -0.00511988    0.01757184
     atom    5 type  2   force =    -0.01040319   -0.00443629   -0.01973525
     atom    6 type  2   force =     0.00157455   -0.00600952    0.00584252
     atom    7 type  2   force =     0.00155288   -0.00556982   -0.00567850
     atom    8 type  2   force =     0.00243701    0.00207922    0.00084710
     atom    9 type  2   force =     0.02406687   -0.00170924    0.01536138
     atom   10 type  2   force =    -0.00213577    0.00741082    0.00223171
     atom   11 type  2   force =     0.00254484    0.00191287   -0.00090814
     atom   12 type  2   force =    -0.00445190    0.00538393   -0.00227916
     atom   13 type  2   force =    -0.00421649    0.00565286    0.00014085
     atom   14 type  2   force =     0.00334129    0.01087813   -0.01289933
     atom   15 type  2   force =     0.00381135    0.01032726    0.01407583
     atom   16 type  2   force =    -0.00172690   -0.01071498   -0.00610840
     atom   17 type  2   force =    -0.00147344   -0.01058049    0.00669634
     atom   18 type  2   force =    -0.00257576    0.00731106   -0.00415760
     atom   19 type  3   force =    -0.03006723    0.00327923   -0.00021632
     atom   20 type  3   force =    -0.00175886   -0.00080065    0.00162242
     atom   21 type  3   force =     0.00190558   -0.01014181    0.00007489
     atom   22 type  3   force =    -0.00167955    0.00331301    0.00054251
     atom   23 type  3   force =     0.00598988    0.00171320    0.00083149
     atom   24 type  3   force =    -0.00003165    0.00046259    0.00064638
     atom   25 type  3   force =     0.01480785   -0.06913004   -0.00069037
     atom   26 type  3   force =    -0.01101582   -0.00359148   -0.00007464
     atom   27 type  3   force =    -0.01966901    0.02861681   -0.00043161
     atom   28 type  1   force =     0.01718923    0.03730953    0.00192578

     Total force =     0.114441     Total SCF correction =     0.001302


     Computing stress (Cartesian axis) and pressure


     negative rho (up, down):  2.515E-02 0.000E+00
          total   stress  (Ry/bohr**3)                   (kbar)     P=     -389.40
  -0.00259377   0.00002000   0.00000045         -381.56        2.94        0.07
   0.00002000  -0.00255695   0.00000011            2.94     -376.14        0.02
   0.00000045   0.00000011  -0.00279063            0.07        0.02     -410.52


     Writing all to output data dir /root/qe_scratch/cand004_A_SnS2_Ir.save/ :
     XML data file, charge density, pseudopotentials, collected wavefunctions
 
     init_run     :     11.72s CPU     15.13s WALL (       1 calls)
     electrons    :    125.19s CPU    153.58s WALL (       1 calls)
     forces       :      0.32s CPU      0.36s WALL (       1 calls)
     stress       :      0.79s CPU      0.83s WALL (       1 calls)

     Called by init_run:
     wfcinit      :      0.26s CPU      0.42s WALL (       1 calls)
     potinit      :     10.78s CPU     13.74s WALL (       1 calls)
     hinit0       :      0.43s CPU      0.53s WALL (       1 calls)

     Called by electrons:
     c_bands      :      6.55s CPU      6.59s WALL (      19 calls)
     sum_band     :      1.64s CPU      1.65s WALL (      19 calls)
     v_of_rho     :      1.54s CPU      2.04s WALL (      20 calls)
     newd         :      0.97s CPU      1.04s WALL (      20 calls)
                                        1.04s GPU  (      20 calls)
     PAW_pot      :    117.28s CPU    145.96s WALL (      20 calls)
     mix_rho      :      0.75s CPU      0.80s WALL (      19 calls)

     Called by c_bands:
     init_us_2    :      0.05s CPU      0.05s WALL (      39 calls)
     cegterg      :      6.38s CPU      6.41s WALL (      19 calls)

     Called by *egterg:
     cdiaghg      :      0.87s CPU      0.90s WALL (     100 calls)
                                        0.90s GPU  (     100 calls)
     h_psi        :      2.66s CPU      2.82s WALL (     101 calls)
                                        2.82s GPU  (     101 calls)
     s_psi        :      0.12s CPU      0.12s WALL (     101 calls)
     g_psi        :      0.00s CPU      0.01s WALL (      81 calls)
                                        0.01s GPU  (      81 calls)

     Called by h_psi:
     h_psi:calbec :      0.12s CPU      0.93s WALL (     101 calls)
                                        0.93s GPU  (     101 calls)
     vloc_psi     :      1.12s CPU      1.14s WALL (     101 calls)
                                        1.14s GPU  (     101 calls)
     add_vuspsi   :      0.12s CPU      0.74s WALL (     101 calls)
                                        0.74s GPU  (     101 calls)

     General routines
     calbec       :      0.12s CPU      0.26s WALL (     125 calls)
     fft          :      4.44s CPU      5.91s WALL (     283 calls)
                                        0.05s GPU  (     263 calls)
     ffts         :      2.17s CPU      2.72s WALL (      39 calls)
                                        0.00s GPU  (      19 calls)
     fftw         :      0.02s CPU      1.13s WALL (    1126 calls)
                                        1.13s GPU  (    1126 calls)
     interpolate  :      6.71s CPU      8.71s WALL (      20 calls)
 
     Parallel routines
 
     PWSCF        :   2m18.77s CPU   2m50.81s WALL

 
   This run was terminated on:  11:57:29   6May2026            

=------------------------------------------------------------------------------=
   JOB DONE.
=------------------------------------------------------------------------------=
Warning: ieee_invalid is signaling
Warning: ieee_divide_by_zero is signaling
Warning: ieee_inexact is signaling
FORTRAN STOP
