--------------------------------------------------------------------------
WARNING: Open MPI tried to bind a process but failed.  This is a
warning only; your job will continue, though performance may
be degraded.

  Local host:        3253031b5b37
  Application name:  /root/qe-7.3.1/bin/pw.x
  Error message:     failed to bind memory
  Location:          ../../../../../orte/mca/rtc/hwloc/rtc_hwloc.c:447

--------------------------------------------------------------------------

     Program PWSCF v.7.3.1 starts on  6May2026 at 13:41:12 

     This program is part of the open-source Quantum ESPRESSO suite
     for quantum simulation of materials; please cite
         "P. Giannozzi et al., J. Phys.:Condens. Matter 21 395502 (2009);
         "P. Giannozzi et al., J. Phys.:Condens. Matter 29 465901 (2017);
         "P. Giannozzi et al., J. Chem. Phys. 152 154105 (2020);
          URL http://www.quantum-espresso.org", 
     in publications or presentations arising from this work. More details at
     http://www.quantum-espresso.org/quote

     Parallel version (MPI & OpenMP), running on       8 processor cores
     Number of MPI processes:                 1
     Threads/MPI process:                     8

     MPI processes distributed on     1 nodes
     82512 MiB available memory on the printing compute node when the environment starts
 
     Reading input from cand142_B_Ti2CO2_Ca.in

     Current dimensions of program PWSCF are:
     Max number of different atomic species (ntypx) = 10
     Max number of k-points (npk) =  40000
     Max angular momentum in pseudopotentials (lmaxx) =  4
     file Ca.UPF: wavefunction(s)  3S renormalized
     file Ti.UPF: wavefunction(s)  3S 3P 3D renormalized
 
     Subspace diagonalization in iterative solution of the eigenvalue problem:
     a serial algorithm will be used

 
     G-vector sticks info
     --------------------
     sticks:   dense  smooth     PW     G-vecs:    dense   smooth      PW
     Sum        6505    4339   1069               681217   370707   46193
 
     Using Slab Decomposition
 


     bravais-lattice index     =            0
     lattice parameter (alat)  =      22.9196  a.u.
     unit-cell volume          =   16700.1634 (a.u.)^3
     number of atoms/cell      =           81
     number of atomic types    =            4
     number of electrons       =       650.00
     number of Kohn-Sham states=          390
     kinetic-energy cutoff     =      30.0000  Ry
     charge density cutoff     =     180.0000  Ry
     scf convergence threshold =      1.0E-07
     mixing beta               =       0.4000
     number of iterations used =            8  plain     mixing
     Exchange-correlation= SLA  PW   PBX  PBC
                           (   1   4   3   4   0   0   0)

     GPU acceleration is ACTIVE.  1 visible GPUs per MPI rank


     celldm(1)=  22.919623  celldm(2)=   0.000000  celldm(3)=   0.000000
     celldm(4)=   0.000000  celldm(5)=   0.000000  celldm(6)=   0.000000

     crystal axes: (cart. coord. in units of alat)
               a(1) = (   1.000000   0.000000   0.000000 )  
               a(2) = (  -0.500000   0.866025   0.000000 )  
               a(3) = (   0.000000   0.000000   1.601650 )  

     reciprocal axes: (cart. coord. in units 2 pi/alat)
               b(1) = (  1.000000  0.577350 -0.000000 )  
               b(2) = (  0.000000  1.154701  0.000000 )  
               b(3) = (  0.000000 -0.000000  0.624356 )  


     PseudoPot. # 1 for C  read from file:
     /root/qe_pseudos/C.UPF
     MD5 check sum: 9b35a7431356f8229172919cb1fa74b8
     Pseudo is Norm-conserving, Zval =  4.0
     Generated by new atomic code, or converted to UPF format
     Using radial grid of 1073 points,  1 beta functions with: 
                l(1) =   0

     PseudoPot. # 2 for Ca read from file:
     /root/qe_pseudos/Ca.UPF
     MD5 check sum: 1e11ab70c77b02a7d7d676f41d47b751
     Pseudo is Projector augmented-wave + core cor, Zval = 10.0
     Generated using &quot;atomic&quot; code by A. Dal Corso  v.6.4.1
     Shape of augmentation charge: PSQ
     Using radial grid of 1169 points,  6 beta functions with: 
                l(1) =   0
                l(2) =   0
                l(3) =   1
                l(4) =   1
                l(5) =   2
                l(6) =   2
     Q(r) pseudized with 0 coefficients 


     PseudoPot. # 3 for O  read from file:
     /root/qe_pseudos/O.UPF
     MD5 check sum: c7f41d994d4e90c1781f5cd713c45011
     Pseudo is Projector augmented-wave + core cor, Zval =  6.0
     Generated using "atomic" code by A. Dal Corso (espresso distribution)
     Shape of augmentation charge: BESSEL
     Using radial grid of 1095 points,  4 beta functions with: 
                l(1) =   0
                l(2) =   0
                l(3) =   1
                l(4) =   1
     Q(r) pseudized with 0 coefficients 


     PseudoPot. # 4 for Ti read from file:
     /root/qe_pseudos/Ti.UPF
     MD5 check sum: 01f69b0d8ba4438b2e03ac6ea4af1c0b
     Pseudo is Projector augmented-wave + core cor, Zval = 12.0
     Generated using &quot;atomic&quot; code by A. Dal Corso  v.6.2.2
     Shape of augmentation charge: PSQ
     Using radial grid of 1177 points,  6 beta functions with: 
                l(1) =   0
                l(2) =   0
                l(3) =   1
                l(4) =   1
                l(5) =   2
                l(6) =   2
     Q(r) pseudized with 0 coefficients 


     atomic species   valence    mass     pseudopotential
     C                 4.00    12.01100     C ( 1.00)
     Ca               10.00    40.07800     Ca( 1.00)
     O                 6.00    15.99900     O ( 1.00)
     Ti               12.00    47.86700     Ti( 1.00)

     No symmetry found



   Cartesian axes

     site n.     atom                  positions (alat units)
         1        C      tau(   1) = (   0.1249188   0.6499129   0.8017710  )
         2        C      tau(   2) = (   0.2497002   0.4329782   0.8015083  )
         3        C      tau(   3) = (   0.0013343  -0.0001803   0.7965345  )
         4        C      tau(   4) = (   0.3753360   0.2158560   0.8014691  )
         5        C      tau(   5) = (   0.7494872  -0.0014052   0.7995173  )
         6        C      tau(   6) = (   0.3737900   0.6497823   0.7994387  )
         7        C      tau(   7) = (   0.4999722  -0.0009064   0.8013069  )
         8        C      tau(   8) = (  -0.1244642   0.2177356   0.7994139  )
         9        C      tau(   9) = (  -0.1251317   0.6495064   0.8021058  )
        10        C      tau(  10) = (  -0.0000586   0.4328371   0.8019206  )
        11        C      tau(  11) = (   0.6257128   0.2157144   0.8009463  )
        12        C      tau(  12) = (   0.1241309   0.2166367   0.8012095  )
        13        C      tau(  13) = (  -0.2492027   0.4335097   0.8010627  )
        14        C      tau(  14) = (   0.2499194  -0.0008014   0.8014235  )
        15        C      tau(  15) = (  -0.3742097   0.6492817   0.7997662  )
        16        C      tau(  16) = (   0.5001909   0.4335933   0.8009429  )
        17        O      tau(  17) = (  -0.1234682   0.5060488   0.6181766  )
        18        O      tau(  18) = (  -0.1250693   0.7945856   0.9836062  )
        19        O      tau(  19) = (  -0.0007331   0.7204492   0.6189406  )
        20        O      tau(  20) = (   0.5001006   0.7194885   0.6157836  )
        21        O      tau(  21) = (   0.7463851   0.1462507   0.9860471  )
        22        O      tau(  22) = (   0.4999572   0.1445103   0.9837096  )
        23        O      tau(  23) = (   0.6233818   0.0726057   0.6188243  )
        24        O      tau(  24) = (  -0.1251383   0.3601303   0.9840684  )
        25        O      tau(  25) = (   0.1281523   0.0741461   0.6163491  )
        26        O      tau(  26) = (   0.3754952   0.3607461   0.9838949  )
        27        O      tau(  27) = (   0.4998910   0.2883867   0.6197260  )
        28        O      tau(  28) = (   0.2470808   0.7199492   0.6169612  )
        29        O      tau(  29) = (   0.3753654   0.7919149   0.9919057  )
        30        O      tau(  30) = (   0.2508844   0.5774315   0.9838792  )
        31        O      tau(  31) = (   0.3744967   0.5036101   0.6185398  )
        32        O      tau(  32) = (   0.0033997   0.1428541   0.9902424  )
        33        O      tau(  33) = (   0.5000394   0.5748048   0.9847660  )
        34        O      tau(  34) = (   0.8736566   0.0731561   0.6159089  )
        35        O      tau(  35) = (   0.7493030   0.2895528   0.6181769  )
        36        O      tau(  36) = (  -0.3757893   0.7969653   0.9899836  )
        37        O      tau(  37) = (  -0.2470495   0.7213302   0.6175998  )
        38        O      tau(  38) = (  -0.2506540   0.5774672   0.9839436  )
        39        O      tau(  39) = (   0.2505590   0.1441140   0.9837039  )
        40        O      tau(  40) = (   0.3753011   0.0720146   0.6192684  )
        41        O      tau(  41) = (   0.1236323   0.5051283   0.6185349  )
        42        O      tau(  42) = (   0.6244734   0.3606052   0.9830807  )
        43        O      tau(  43) = (   0.1253904   0.3604643   0.9838101  )
        44        O      tau(  44) = (   0.1256118   0.7945312   0.9841906  )
        45        O      tau(  45) = (   0.2499056   0.2888345   0.6194117  )
        46        O      tau(  46) = (   0.0013245   0.2913879   0.6173643  )
        47        O      tau(  47) = (   0.0001666   0.5774413   0.9835165  )
        48        O      tau(  48) = (   0.6253355   0.5039489   0.6179019  )
        49        Ti     tau(  49) = (   0.4982494   0.7222314   0.8944902  )
        50        Ti     tau(  50) = (   0.8755397   0.0704040   0.8929176  )
        51        Ti     tau(  51) = (   0.3749821   0.7945517   0.6954423  )
        52        Ti     tau(  52) = (   0.7505154   0.2869371   0.9080004  )
        53        Ti     tau(  53) = (   0.7502059   0.1444669   0.6926967  )
        54        Ti     tau(  54) = (   0.4998822   0.5784003   0.6935007  )
        55        Ti     tau(  55) = (   0.6242944   0.5063219   0.9073039  )
        56        Ti     tau(  56) = (   0.6246349   0.3613529   0.6929209  )
        57        Ti     tau(  57) = (  -0.0001596   0.1418761   0.6961375  )
        58        Ti     tau(  58) = (   0.1275730   0.7936226   0.7004576  )
        59        Ti     tau(  59) = (   0.1257438   0.0727206   0.9058561  )
        60        Ti     tau(  60) = (  -0.1247682   0.3587514   0.6979521  )
        61        Ti     tau(  61) = (   0.0003479   0.2863292   0.9084459  )
        62        Ti     tau(  62) = (  -0.2503624   0.5778067   0.6959356  )
        63        Ti     tau(  63) = (  -0.1253183   0.5048690   0.9076752  )
        64        Ti     tau(  64) = (  -0.3770250   0.7940274   0.6957541  )
        65        Ti     tau(  65) = (  -0.2508581   0.7229755   0.9079026  )
        66        Ti     tau(  66) = (   0.2494795   0.1441205   0.6922846  )
        67        Ti     tau(  67) = (   0.3745120   0.0718920   0.9059445  )
        68        Ti     tau(  68) = (   0.2530498   0.7245134   0.9089797  )
        69        Ti     tau(  69) = (   0.1228620   0.3610579   0.6936770  )
        70        Ti     tau(  70) = (  -0.0009251   0.5771396   0.6926827  )
        71        Ti     tau(  71) = (   0.1243359   0.5062889   0.9070138  )
        72        Ti     tau(  72) = (  -0.1251728   0.7929794   0.6932917  )
        73        Ti     tau(  73) = (   0.0001135   0.7217934   0.9063679  )
        74        Ti     tau(  74) = (   0.6268374   0.0736395   0.9104792  )
        75        Ti     tau(  75) = (   0.3744465   0.3616613   0.6943623  )
        76        Ti     tau(  76) = (   0.4997562   0.2888820   0.9100555  )
        77        Ti     tau(  77) = (   0.2507614   0.5794139   0.6962552  )
        78        Ti     tau(  78) = (   0.3755897   0.5060977   0.9092215  )
        79        Ti     tau(  79) = (   0.2488962   0.2897206   0.9068658  )
        80        Ti     tau(  80) = (   0.5009897   0.1436925   0.6945257  )
        81        Ca     tau(  81) = (  -0.0018226  -0.0004779   1.1289756  )

     number of k points=     1  Methfessel-Paxton smearing, width (Ry)=  0.0100
                       cart. coord. in units 2pi/alat
        k(    1) = (   0.0000000   0.0000000   0.0000000), wk =   2.0000000

     Dense  grid:   681217 G-vectors     FFT dimensions: ( 100, 100, 160)

     Smooth grid:   370707 G-vectors     FFT dimensions: (  80,  80, 135)

     Estimated max dynamical RAM per process >       4.16 GB

     Check: negative core charge=   -0.000044

     Initial potential from superposition of free atoms

     starting charge     641.9481, renormalised to     650.0000

     negative rho (up, down):  4.171E-02 0.000E+00
     Starting wfcs are  584 randomized atomic wfcs
     Checking if some PAW data can be deallocated... 

     total cpu time spent up to now is       27.3 secs

     Self-consistent Calculation

     iteration #  1     ecut=    30.00 Ry     beta= 0.40
     Davidson diagonalization with overlap
     ethr =  1.00E-02,  avg # of iterations =  3.0

     negative rho (up, down):  3.778E-02 0.000E+00

     total cpu time spent up to now is       47.4 secs

     total energy              =   -7515.18742442 Ry
     estimated scf accuracy    <      54.64992377 Ry

     iteration #  2     ecut=    30.00 Ry     beta= 0.40
     Davidson diagonalization with overlap
     ethr =  8.41E-03,  avg # of iterations =  4.0

     negative rho (up, down):  5.286E-02 0.000E+00

     total cpu time spent up to now is       67.6 secs

     total energy              =   -7524.77357967 Ry
     estimated scf accuracy    <      23.90896747 Ry

     iteration #  3     ecut=    30.00 Ry     beta= 0.40
     Davidson diagonalization with overlap
     ethr =  3.68E-03,  avg # of iterations =  6.0

     negative rho (up, down):  8.719E-02 0.000E+00

     total cpu time spent up to now is       87.9 secs

     total energy              =   -7523.97501718 Ry
     estimated scf accuracy    <     104.44511338 Ry

     iteration #  4     ecut=    30.00 Ry     beta= 0.40
     Davidson diagonalization with overlap
     ethr =  3.68E-03,  avg # of iterations =  2.0

     negative rho (up, down):  8.624E-02 0.000E+00

     total cpu time spent up to now is      107.7 secs

     total energy              =   -7530.72048533 Ry
     estimated scf accuracy    <       2.81471771 Ry

     iteration #  5     ecut=    30.00 Ry     beta= 0.40
     Davidson diagonalization with overlap
     ethr =  4.33E-04,  avg # of iterations = 13.0

     negative rho (up, down):  9.456E-02 0.000E+00

     total cpu time spent up to now is      128.5 secs

     total energy              =   -7530.90952523 Ry
     estimated scf accuracy    <       0.77349563 Ry

     iteration #  6     ecut=    30.00 Ry     beta= 0.40
     Davidson diagonalization with overlap
     c_bands:  1 eigenvalues not converged
     ethr =  1.19E-04,  avg # of iterations = 20.0

     negative rho (up, down):  1.140E-01 0.000E+00

     total cpu time spent up to now is      149.7 secs

     total energy              =   -7530.92032535 Ry
     estimated scf accuracy    <       0.38865272 Ry

     iteration #  7     ecut=    30.00 Ry     beta= 0.40
     Davidson diagonalization with overlap
     ethr =  5.98E-05,  avg # of iterations = 19.0

     negative rho (up, down):  1.483E-01 0.000E+00

     total cpu time spent up to now is      171.1 secs

     total energy              =   -7530.94724429 Ry
     estimated scf accuracy    <       0.41421214 Ry

     iteration #  8     ecut=    30.00 Ry     beta= 0.40
     Davidson diagonalization with overlap
     ethr =  5.98E-05,  avg # of iterations = 18.0

     negative rho (up, down):  1.911E-01 0.000E+00

     total cpu time spent up to now is      192.0 secs

     total energy              =   -7530.97905786 Ry
     estimated scf accuracy    <       0.14377091 Ry

     iteration #  9     ecut=    30.00 Ry     beta= 0.40
     Davidson diagonalization with overlap
     ethr =  2.21E-05,  avg # of iterations = 19.0

     negative rho (up, down):  2.474E-01 0.000E+00

     total cpu time spent up to now is      212.8 secs

     total energy              =   -7530.99875488 Ry
     estimated scf accuracy    <       0.02742071 Ry

     iteration # 10     ecut=    30.00 Ry     beta= 0.40
     Davidson diagonalization with overlap
     c_bands:  1 eigenvalues not converged
     ethr =  4.22E-06,  avg # of iterations = 20.0

     negative rho (up, down):  3.058E-01 0.000E+00

     total cpu time spent up to now is      234.5 secs

     total energy              =   -7531.00695743 Ry
     estimated scf accuracy    <       0.00787929 Ry

     iteration # 11     ecut=    30.00 Ry     beta= 0.40
     Davidson diagonalization with overlap
     c_bands:  1 eigenvalues not converged
     ethr =  1.21E-06,  avg # of iterations = 20.0

     negative rho (up, down):  3.662E-01 0.000E+00

     total cpu time spent up to now is      256.4 secs

     total energy              =   -7531.01286377 Ry
     estimated scf accuracy    <       0.00425680 Ry

     iteration # 12     ecut=    30.00 Ry     beta= 0.40
     Davidson diagonalization with overlap
     c_bands:  1 eigenvalues not converged
     ethr =  6.55E-07,  avg # of iterations = 20.0

     negative rho (up, down):  4.266E-01 0.000E+00

     total cpu time spent up to now is      278.1 secs

     total energy              =   -7531.01903376 Ry
     estimated scf accuracy    <       0.00298488 Ry

     iteration # 13     ecut=    30.00 Ry     beta= 0.40
     Davidson diagonalization with overlap
     c_bands:  2 eigenvalues not converged
     ethr =  4.59E-07,  avg # of iterations = 20.0

     negative rho (up, down):  4.938E-01 0.000E+00

     total cpu time spent up to now is      300.0 secs

     total energy              =   -7531.02404061 Ry
     estimated scf accuracy    <       0.00283101 Ry

     iteration # 14     ecut=    30.00 Ry     beta= 0.40
     Davidson diagonalization with overlap
     ethr =  4.36E-07,  avg # of iterations =  3.0

     negative rho (up, down):  5.590E-01 0.000E+00

     total cpu time spent up to now is      319.9 secs

     total energy              =   -7531.02917596 Ry
     estimated scf accuracy    <       0.00263073 Ry

     iteration # 15     ecut=    30.00 Ry     beta= 0.40
     Davidson diagonalization with overlap
     ethr =  4.05E-07,  avg # of iterations =  2.0

     negative rho (up, down):  6.986E-01 0.000E+00

     total cpu time spent up to now is      339.8 secs

     total energy              =   -7531.01452018 Ry
     estimated scf accuracy    <       0.00128203 Ry

     iteration # 16     ecut=    30.00 Ry     beta= 0.40
     Davidson diagonalization with overlap
     ethr =  1.97E-07,  avg # of iterations =  5.0

     negative rho (up, down):  7.011E-01 0.000E+00

     total cpu time spent up to now is      360.3 secs

     total energy              =   -7531.03032341 Ry
     estimated scf accuracy    <       0.00156326 Ry

     iteration # 17     ecut=    30.00 Ry     beta= 0.40
     Davidson diagonalization with overlap
     ethr =  1.97E-07,  avg # of iterations =  5.0

     negative rho (up, down):  7.440E-01 0.000E+00

     total cpu time spent up to now is      380.5 secs

     total energy              =   -7531.03745757 Ry
     estimated scf accuracy    <       0.00031811 Ry

     iteration # 18     ecut=    30.00 Ry     beta= 0.40
     Davidson diagonalization with overlap
     ethr =  4.89E-08,  avg # of iterations =  5.0

     negative rho (up, down):  7.908E-01 0.000E+00

     total cpu time spent up to now is      401.2 secs

     total energy              =   -7531.04253307 Ry
     estimated scf accuracy    <       0.00035328 Ry

     iteration # 19     ecut=    30.00 Ry     beta= 0.40
     Davidson diagonalization with overlap
     ethr =  4.89E-08,  avg # of iterations =  3.0

     negative rho (up, down):  8.449E-01 0.000E+00

     total cpu time spent up to now is      421.5 secs

     total energy              =   -7531.04449371 Ry
     estimated scf accuracy    <       0.00081924 Ry

     iteration # 20     ecut=    30.00 Ry     beta= 0.40
     Davidson diagonalization with overlap
     ethr =  4.89E-08,  avg # of iterations =  3.0

     negative rho (up, down):  9.019E-01 0.000E+00

     total cpu time spent up to now is      441.7 secs

     total energy              =   -7531.04380776 Ry
     estimated scf accuracy    <       0.00152251 Ry

     iteration # 21     ecut=    30.00 Ry     beta= 0.40
     Davidson diagonalization with overlap
     ethr =  4.89E-08,  avg # of iterations =  5.0

     negative rho (up, down):  9.555E-01 0.000E+00

     total cpu time spent up to now is      462.1 secs

     total energy              =   -7531.04236677 Ry
     estimated scf accuracy    <       0.00251921 Ry

     iteration # 22     ecut=    30.00 Ry     beta= 0.40
     Davidson diagonalization with overlap
     ethr =  4.89E-08,  avg # of iterations = 12.0

     negative rho (up, down):  1.017E+00 0.000E+00

     total cpu time spent up to now is      483.0 secs

     total energy              =   -7531.03667854 Ry
     estimated scf accuracy    <       0.00307825 Ry

     iteration # 23     ecut=    30.00 Ry     beta= 0.40
     Davidson diagonalization with overlap
     ethr =  4.89E-08,  avg # of iterations =  3.0

     negative rho (up, down):  1.061E+00 0.000E+00

     total cpu time spent up to now is      503.2 secs

     total energy              =   -7531.03412135 Ry
     estimated scf accuracy    <       0.00428713 Ry

     iteration # 24     ecut=    30.00 Ry     beta= 0.40
     Davidson diagonalization with overlap
     ethr =  4.89E-08,  avg # of iterations =  2.0

     negative rho (up, down):  1.094E+00 0.000E+00

     total cpu time spent up to now is      523.4 secs

     total energy              =   -7531.03398206 Ry
     estimated scf accuracy    <       0.00468234 Ry

     iteration # 25     ecut=    30.00 Ry     beta= 0.40
     Davidson diagonalization with overlap
     ethr =  4.89E-08,  avg # of iterations =  2.0

     negative rho (up, down):  1.093E+00 0.000E+00

     total cpu time spent up to now is      543.2 secs

     total energy              =   -7531.04384701 Ry
     estimated scf accuracy    <       0.00469182 Ry

     iteration # 26     ecut=    30.00 Ry     beta= 0.40
     Davidson diagonalization with overlap
     ethr =  4.89E-08,  avg # of iterations =  5.0

     negative rho (up, down):  1.119E+00 0.000E+00

     total cpu time spent up to now is      563.4 secs

     total energy              =   -7531.04472601 Ry
     estimated scf accuracy    <       0.00312089 Ry

     iteration # 27     ecut=    30.00 Ry     beta= 0.40
     Davidson diagonalization with overlap
     ethr =  4.89E-08,  avg # of iterations =  5.0

     negative rho (up, down):  1.154E+00 0.000E+00

     total cpu time spent up to now is      583.6 secs

     total energy              =   -7531.04162351 Ry
     estimated scf accuracy    <       0.00286474 Ry

     iteration # 28     ecut=    30.00 Ry     beta= 0.40
     Davidson diagonalization with overlap
     ethr =  4.89E-08,  avg # of iterations =  2.0

     negative rho (up, down):  1.169E+00 0.000E+00

     total cpu time spent up to now is      603.4 secs

     total energy              =   -7531.04413347 Ry
     estimated scf accuracy    <       0.00334522 Ry

     iteration # 29     ecut=    30.00 Ry     beta= 0.40
     Davidson diagonalization with overlap
     ethr =  4.89E-08,  avg # of iterations =  2.0

     negative rho (up, down):  1.178E+00 0.000E+00

     total cpu time spent up to now is      623.3 secs

     total energy              =   -7531.04803654 Ry
     estimated scf accuracy    <       0.00302298 Ry

     iteration # 30     ecut=    30.00 Ry     beta= 0.40
     Davidson diagonalization with overlap
     ethr =  4.89E-08,  avg # of iterations =  2.0

     negative rho (up, down):  1.208E+00 0.000E+00

     total cpu time spent up to now is      643.1 secs

     total energy              =   -7531.04384244 Ry
     estimated scf accuracy    <       0.00220947 Ry

     iteration # 31     ecut=    30.00 Ry     beta= 0.40
     Davidson diagonalization with overlap
     ethr =  4.89E-08,  avg # of iterations =  2.0

     negative rho (up, down):  1.194E+00 0.000E+00

     total cpu time spent up to now is      663.0 secs

     total energy              =   -7531.05530268 Ry
     estimated scf accuracy    <       0.00289228 Ry

     iteration # 32     ecut=    30.00 Ry     beta= 0.40
     Davidson diagonalization with overlap
     ethr =  4.89E-08,  avg # of iterations =  6.0

     negative rho (up, down):  1.215E+00 0.000E+00

     total cpu time spent up to now is      683.6 secs

     total energy              =   -7531.05354371 Ry
     estimated scf accuracy    <       0.00176374 Ry

     iteration # 33     ecut=    30.00 Ry     beta= 0.40
     Davidson diagonalization with overlap
     ethr =  4.89E-08,  avg # of iterations =  6.0

     negative rho (up, down):  1.234E+00 0.000E+00

     total cpu time spent up to now is      704.0 secs

     total energy              =   -7531.05181667 Ry
     estimated scf accuracy    <       0.00103230 Ry

     iteration # 34     ecut=    30.00 Ry     beta= 0.40
     Davidson diagonalization with overlap
     c_bands:  2 eigenvalues not converged
     ethr =  4.89E-08,  avg # of iterations = 20.0

     negative rho (up, down):  1.258E+00 0.000E+00

     total cpu time spent up to now is      724.9 secs

     total energy              =   -7531.04702264 Ry
     estimated scf accuracy    <       0.00149814 Ry

     iteration # 35     ecut=    30.00 Ry     beta= 0.40
     Davidson diagonalization with overlap
     ethr =  4.89E-08,  avg # of iterations =  2.0

     negative rho (up, down):  1.263E+00 0.000E+00

     total cpu time spent up to now is      744.7 secs

     total energy              =   -7531.04910783 Ry
     estimated scf accuracy    <       0.00208965 Ry

     iteration # 36     ecut=    30.00 Ry     beta= 0.40
     Davidson diagonalization with overlap
     ethr =  4.89E-08,  avg # of iterations =  6.0

     negative rho (up, down):  1.266E+00 0.000E+00

     total cpu time spent up to now is      765.0 secs

     total energy              =   -7531.05157116 Ry
     estimated scf accuracy    <       0.00251878 Ry

     iteration # 37     ecut=    30.00 Ry     beta= 0.40
     Davidson diagonalization with overlap
     ethr =  4.89E-08,  avg # of iterations =  6.0

     negative rho (up, down):  1.275E+00 0.000E+00

     total cpu time spent up to now is      785.3 secs

     total energy              =   -7531.05143868 Ry
     estimated scf accuracy    <       0.00214449 Ry

     iteration # 38     ecut=    30.00 Ry     beta= 0.40
     Davidson diagonalization with overlap
     ethr =  4.89E-08,  avg # of iterations =  5.0

     negative rho (up, down):  1.283E+00 0.000E+00

     total cpu time spent up to now is      805.4 secs

     total energy              =   -7531.05116361 Ry
     estimated scf accuracy    <       0.00139331 Ry

     iteration # 39     ecut=    30.00 Ry     beta= 0.40
     Davidson diagonalization with overlap
     ethr =  4.89E-08,  avg # of iterations =  2.0

     negative rho (up, down):  1.296E+00 0.000E+00

     total cpu time spent up to now is      825.4 secs

     total energy              =   -7531.04932002 Ry
     estimated scf accuracy    <       0.00138674 Ry

     iteration # 40     ecut=    30.00 Ry     beta= 0.40
     Davidson diagonalization with overlap
     ethr =  4.89E-08,  avg # of iterations =  5.0

     negative rho (up, down):  1.324E+00 0.000E+00

     total cpu time spent up to now is      845.5 secs

     total energy              =   -7531.04120736 Ry
     estimated scf accuracy    <       0.00201693 Ry

     iteration # 41     ecut=    30.00 Ry     beta= 0.40
     Davidson diagonalization with overlap
     ethr =  4.89E-08,  avg # of iterations =  5.0

     negative rho (up, down):  1.314E+00 0.000E+00

     total cpu time spent up to now is      865.6 secs

     total energy              =   -7531.04564484 Ry
     estimated scf accuracy    <       0.00288891 Ry

     iteration # 42     ecut=    30.00 Ry     beta= 0.40
     Davidson diagonalization with overlap
     ethr =  4.89E-08,  avg # of iterations =  5.0

     negative rho (up, down):  1.285E+00 0.000E+00

     total cpu time spent up to now is      885.5 secs

     total energy              =   -7531.05795972 Ry
     estimated scf accuracy    <       0.00234648 Ry

     iteration # 43     ecut=    30.00 Ry     beta= 0.40
     Davidson diagonalization with overlap
     ethr =  4.89E-08,  avg # of iterations =  6.0

     negative rho (up, down):  1.291E+00 0.000E+00

     total cpu time spent up to now is      906.2 secs

     total energy              =   -7531.05814118 Ry
     estimated scf accuracy    <       0.00047942 Ry

     iteration # 44     ecut=    30.00 Ry     beta= 0.40
     Davidson diagonalization with overlap
     ethr =  4.89E-08,  avg # of iterations =  5.0

     negative rho (up, down):  1.295E+00 0.000E+00

     total cpu time spent up to now is      926.2 secs

     total energy              =   -7531.05818592 Ry
     estimated scf accuracy    <       0.00017049 Ry

     iteration # 45     ecut=    30.00 Ry     beta= 0.40
     Davidson diagonalization with overlap
     ethr =  2.62E-08,  avg # of iterations =  5.0

     negative rho (up, down):  1.300E+00 0.000E+00

     total cpu time spent up to now is      946.3 secs

     total energy              =   -7531.05833749 Ry
     estimated scf accuracy    <       0.00009995 Ry

     iteration # 46     ecut=    30.00 Ry     beta= 0.40
     Davidson diagonalization with overlap
     ethr =  1.54E-08,  avg # of iterations =  2.0

     negative rho (up, down):  1.305E+00 0.000E+00

     total cpu time spent up to now is      966.1 secs

     total energy              =   -7531.05832912 Ry
     estimated scf accuracy    <       0.00002907 Ry

     iteration # 47     ecut=    30.00 Ry     beta= 0.40
     Davidson diagonalization with overlap
     ethr =  4.47E-09,  avg # of iterations =  5.0

     negative rho (up, down):  1.309E+00 0.000E+00

     total cpu time spent up to now is      986.3 secs

     total energy              =   -7531.05836243 Ry
     estimated scf accuracy    <       0.00003038 Ry

     iteration # 48     ecut=    30.00 Ry     beta= 0.40
     Davidson diagonalization with overlap
     ethr =  4.47E-09,  avg # of iterations =  5.0

     negative rho (up, down):  1.312E+00 0.000E+00

     total cpu time spent up to now is     1006.4 secs

     total energy              =   -7531.05839607 Ry
     estimated scf accuracy    <       0.00001374 Ry

     iteration # 49     ecut=    30.00 Ry     beta= 0.40
     Davidson diagonalization with overlap
     ethr =  2.11E-09,  avg # of iterations =  5.0

     negative rho (up, down):  1.315E+00 0.000E+00

     total cpu time spent up to now is     1026.5 secs

     total energy              =   -7531.05839248 Ry
     estimated scf accuracy    <       0.00000746 Ry

     iteration # 50     ecut=    30.00 Ry     beta= 0.40
     Davidson diagonalization with overlap
     ethr =  1.15E-09,  avg # of iterations =  3.0

     negative rho (up, down):  1.318E+00 0.000E+00

     total cpu time spent up to now is     1046.5 secs

     total energy              =   -7531.05841497 Ry
     estimated scf accuracy    <       0.00000374 Ry

     iteration # 51     ecut=    30.00 Ry     beta= 0.40
     Davidson diagonalization with overlap
     ethr =  5.75E-10,  avg # of iterations =  5.0

     negative rho (up, down):  1.320E+00 0.000E+00

     total cpu time spent up to now is     1066.8 secs

     total energy              =   -7531.05840220 Ry
     estimated scf accuracy    <       0.00000328 Ry

     iteration # 52     ecut=    30.00 Ry     beta= 0.40
     Davidson diagonalization with overlap
     ethr =  5.05E-10,  avg # of iterations =  5.0

     negative rho (up, down):  1.323E+00 0.000E+00

     total cpu time spent up to now is     1087.2 secs

     total energy              =   -7531.05842872 Ry
     estimated scf accuracy    <       0.00000120 Ry

     iteration # 53     ecut=    30.00 Ry     beta= 0.40
     Davidson diagonalization with overlap
     ethr =  1.85E-10,  avg # of iterations =  5.0

     negative rho (up, down):  1.325E+00 0.000E+00

     total cpu time spent up to now is     1107.8 secs

     total energy              =   -7531.05847372 Ry
     estimated scf accuracy    <       0.00000086 Ry

     iteration # 54     ecut=    30.00 Ry     beta= 0.40
     Davidson diagonalization with overlap
     ethr =  1.32E-10,  avg # of iterations =  5.0

     negative rho (up, down):  1.326E+00 0.000E+00

     total cpu time spent up to now is     1128.4 secs

     total energy              =   -7531.05848948 Ry
     estimated scf accuracy    <       0.00000294 Ry

     iteration # 55     ecut=    30.00 Ry     beta= 0.40
     Davidson diagonalization with overlap
     ethr =  1.32E-10,  avg # of iterations =  3.0

     negative rho (up, down):  1.328E+00 0.000E+00

     total cpu time spent up to now is     1148.7 secs

     total energy              =   -7531.05849809 Ry
     estimated scf accuracy    <       0.00000396 Ry

     iteration # 56     ecut=    30.00 Ry     beta= 0.40
     Davidson diagonalization with overlap
     ethr =  1.32E-10,  avg # of iterations =  4.0

     negative rho (up, down):  1.329E+00 0.000E+00

     total cpu time spent up to now is     1169.2 secs

     total energy              =   -7531.05849411 Ry
     estimated scf accuracy    <       0.00001091 Ry

     iteration # 57     ecut=    30.00 Ry     beta= 0.40
     Davidson diagonalization with overlap
     ethr =  1.32E-10,  avg # of iterations =  4.0

     negative rho (up, down):  1.330E+00 0.000E+00

     total cpu time spent up to now is     1189.7 secs

     total energy              =   -7531.05847231 Ry
     estimated scf accuracy    <       0.00001501 Ry

     iteration # 58     ecut=    30.00 Ry     beta= 0.40
     Davidson diagonalization with overlap
     ethr =  1.32E-10,  avg # of iterations =  3.0

     negative rho (up, down):  1.332E+00 0.000E+00

     total cpu time spent up to now is     1210.0 secs

     total energy              =   -7531.05841633 Ry
     estimated scf accuracy    <       0.00002229 Ry

     iteration # 59     ecut=    30.00 Ry     beta= 0.40
     Davidson diagonalization with overlap
     ethr =  1.32E-10,  avg # of iterations =  4.0

     negative rho (up, down):  1.333E+00 0.000E+00

     total cpu time spent up to now is     1230.5 secs

     total energy              =   -7531.05837167 Ry
     estimated scf accuracy    <       0.00003432 Ry

     iteration # 60     ecut=    30.00 Ry     beta= 0.40
     Davidson diagonalization with overlap
     ethr =  1.32E-10,  avg # of iterations =  3.0

     negative rho (up, down):  1.334E+00 0.000E+00

     total cpu time spent up to now is     1250.7 secs

     total energy              =   -7531.05830536 Ry
     estimated scf accuracy    <       0.00004288 Ry

     iteration # 61     ecut=    30.00 Ry     beta= 0.40
     Davidson diagonalization with overlap
     ethr =  1.32E-10,  avg # of iterations =  3.0

     negative rho (up, down):  1.334E+00 0.000E+00

     total cpu time spent up to now is     1270.9 secs

     total energy              =   -7531.05827641 Ry
     estimated scf accuracy    <       0.00005441 Ry

     iteration # 62     ecut=    30.00 Ry     beta= 0.40
     Davidson diagonalization with overlap
     ethr =  1.32E-10,  avg # of iterations =  3.0

     negative rho (up, down):  1.335E+00 0.000E+00

     total cpu time spent up to now is     1291.1 secs

     total energy              =   -7531.05823824 Ry
     estimated scf accuracy    <       0.00005911 Ry

     iteration # 63     ecut=    30.00 Ry     beta= 0.40
     Davidson diagonalization with overlap
     ethr =  1.32E-10,  avg # of iterations =  3.0

     negative rho (up, down):  1.336E+00 0.000E+00

     total cpu time spent up to now is     1311.2 secs

     total energy              =   -7531.05818025 Ry
     estimated scf accuracy    <       0.00006504 Ry

     iteration # 64     ecut=    30.00 Ry     beta= 0.40
     Davidson diagonalization with overlap
     ethr =  1.32E-10,  avg # of iterations =  3.0

     negative rho (up, down):  1.337E+00 0.000E+00

     total cpu time spent up to now is     1331.4 secs

     total energy              =   -7531.05808057 Ry
     estimated scf accuracy    <       0.00007387 Ry

     iteration # 65     ecut=    30.00 Ry     beta= 0.40
     Davidson diagonalization with overlap
     ethr =  1.32E-10,  avg # of iterations =  3.0

     negative rho (up, down):  1.337E+00 0.000E+00

     total cpu time spent up to now is     1351.7 secs

     total energy              =   -7531.05804590 Ry
     estimated scf accuracy    <       0.00008890 Ry

     iteration # 66     ecut=    30.00 Ry     beta= 0.40
     Davidson diagonalization with overlap
     ethr =  1.32E-10,  avg # of iterations =  3.0

     negative rho (up, down):  1.337E+00 0.000E+00

     total cpu time spent up to now is     1371.9 secs

     total energy              =   -7531.05812658 Ry
     estimated scf accuracy    <       0.00009402 Ry

     iteration # 67     ecut=    30.00 Ry     beta= 0.40
     Davidson diagonalization with overlap
     ethr =  1.32E-10,  avg # of iterations =  3.0

     negative rho (up, down):  1.338E+00 0.000E+00

     total cpu time spent up to now is     1392.1 secs

     total energy              =   -7531.05808436 Ry
     estimated scf accuracy    <       0.00008134 Ry

     iteration # 68     ecut=    30.00 Ry     beta= 0.40
     Davidson diagonalization with overlap
     ethr =  1.32E-10,  avg # of iterations =  3.0

     negative rho (up, down):  1.338E+00 0.000E+00

     total cpu time spent up to now is     1412.2 secs

     total energy              =   -7531.05818144 Ry
     estimated scf accuracy    <       0.00008707 Ry

     iteration # 69     ecut=    30.00 Ry     beta= 0.40
     Davidson diagonalization with overlap
     ethr =  1.32E-10,  avg # of iterations =  3.0

     negative rho (up, down):  1.338E+00 0.000E+00

     total cpu time spent up to now is     1432.4 secs

     total energy              =   -7531.05821935 Ry
     estimated scf accuracy    <       0.00007336 Ry

     iteration # 70     ecut=    30.00 Ry     beta= 0.40
     Davidson diagonalization with overlap
     ethr =  1.32E-10,  avg # of iterations =  5.0

     negative rho (up, down):  1.338E+00 0.000E+00

     total cpu time spent up to now is     1452.7 secs

     total energy              =   -7531.05819228 Ry
     estimated scf accuracy    <       0.00006728 Ry

     iteration # 71     ecut=    30.00 Ry     beta= 0.40
     Davidson diagonalization with overlap
     ethr =  1.32E-10,  avg # of iterations =  3.0

     negative rho (up, down):  1.339E+00 0.000E+00

     total cpu time spent up to now is     1472.9 secs

     total energy              =   -7531.05808973 Ry
     estimated scf accuracy    <       0.00007112 Ry

     iteration # 72     ecut=    30.00 Ry     beta= 0.40
     Davidson diagonalization with overlap
     ethr =  1.32E-10,  avg # of iterations =  5.0

     negative rho (up, down):  1.339E+00 0.000E+00

     total cpu time spent up to now is     1493.3 secs

     total energy              =   -7531.05814301 Ry
     estimated scf accuracy    <       0.00008547 Ry

     iteration # 73     ecut=    30.00 Ry     beta= 0.40
     Davidson diagonalization with overlap
     ethr =  1.32E-10,  avg # of iterations =  7.0

     negative rho (up, down):  1.338E+00 0.000E+00

     total cpu time spent up to now is     1514.5 secs

     total energy              =   -7531.05853807 Ry
     estimated scf accuracy    <       0.00010957 Ry

     iteration # 74     ecut=    30.00 Ry     beta= 0.40
     Davidson diagonalization with overlap
     ethr =  1.32E-10,  avg # of iterations = 11.0

     negative rho (up, down):  1.338E+00 0.000E+00

     total cpu time spent up to now is     1536.5 secs

     total energy              =   -7531.05856931 Ry
     estimated scf accuracy    <       0.00015746 Ry

     iteration # 75     ecut=    30.00 Ry     beta= 0.40
     Davidson diagonalization with overlap
     ethr =  1.32E-10,  avg # of iterations = 11.0

     negative rho (up, down):  1.339E+00 0.000E+00

     total cpu time spent up to now is     1558.4 secs

     total energy              =   -7531.05852223 Ry
     estimated scf accuracy    <       0.00001496 Ry

     iteration # 76     ecut=    30.00 Ry     beta= 0.40
     Davidson diagonalization with overlap
     ethr =  1.32E-10,  avg # of iterations =  9.0

     negative rho (up, down):  1.339E+00 0.000E+00

     total cpu time spent up to now is     1579.5 secs

     total energy              =   -7531.05853301 Ry
     estimated scf accuracy    <       0.00002380 Ry

     iteration # 77     ecut=    30.00 Ry     beta= 0.40
     Davidson diagonalization with overlap
     ethr =  1.32E-10,  avg # of iterations =  6.0

     negative rho (up, down):  1.339E+00 0.000E+00

     total cpu time spent up to now is     1600.3 secs

     total energy              =   -7531.05853141 Ry
     estimated scf accuracy    <       0.00002680 Ry

     iteration # 78     ecut=    30.00 Ry     beta= 0.40
     Davidson diagonalization with overlap
     ethr =  1.32E-10,  avg # of iterations =  6.0

     negative rho (up, down):  1.339E+00 0.000E+00

     total cpu time spent up to now is     1620.8 secs

     total energy              =   -7531.05853024 Ry
     estimated scf accuracy    <       0.00002091 Ry

     iteration # 79     ecut=    30.00 Ry     beta= 0.40
     Davidson diagonalization with overlap
     ethr =  1.32E-10,  avg # of iterations =  6.0

     negative rho (up, down):  1.339E+00 0.000E+00

     total cpu time spent up to now is     1641.6 secs

     total energy              =   -7531.05856095 Ry
     estimated scf accuracy    <       0.00003147 Ry

     iteration # 80     ecut=    30.00 Ry     beta= 0.40
     Davidson diagonalization with overlap
     ethr =  1.32E-10,  avg # of iterations =  8.0

     negative rho (up, down):  1.339E+00 0.000E+00

     total cpu time spent up to now is     1662.5 secs

     total energy              =   -7531.05858975 Ry
     estimated scf accuracy    <       0.00002573 Ry

     iteration # 81     ecut=    30.00 Ry     beta= 0.40
     Davidson diagonalization with overlap
     ethr =  1.32E-10,  avg # of iterations =  6.0

     negative rho (up, down):  1.340E+00 0.000E+00

     total cpu time spent up to now is     1683.3 secs

     total energy              =   -7531.05825325 Ry
     estimated scf accuracy    <       0.00001813 Ry

     iteration # 82     ecut=    30.00 Ry     beta= 0.40
     Davidson diagonalization with overlap
     ethr =  1.32E-10,  avg # of iterations =  7.0

     negative rho (up, down):  1.340E+00 0.000E+00

     total cpu time spent up to now is     1704.2 secs

     total energy              =   -7531.05840143 Ry
     estimated scf accuracy    <       0.00006436 Ry

     iteration # 83     ecut=    30.00 Ry     beta= 0.40
     Davidson diagonalization with overlap
     ethr =  1.32E-10,  avg # of iterations =  6.0

     negative rho (up, down):  1.339E+00 0.000E+00

     total cpu time spent up to now is     1725.0 secs

     total energy              =   -7531.05857021 Ry
     estimated scf accuracy    <       0.00005366 Ry

     iteration # 84     ecut=    30.00 Ry     beta= 0.40
     Davidson diagonalization with overlap
     ethr =  1.32E-10,  avg # of iterations =  7.0

     negative rho (up, down):  1.339E+00 0.000E+00

     total cpu time spent up to now is     1746.2 secs

     total energy              =   -7531.05861724 Ry
     estimated scf accuracy    <       0.00002695 Ry

     iteration # 85     ecut=    30.00 Ry     beta= 0.40
     Davidson diagonalization with overlap
     ethr =  1.32E-10,  avg # of iterations =  6.0

     negative rho (up, down):  1.339E+00 0.000E+00

     total cpu time spent up to now is     1767.1 secs

     total energy              =   -7531.05864726 Ry
     estimated scf accuracy    <       0.00001167 Ry

     iteration # 86     ecut=    30.00 Ry     beta= 0.40
     Davidson diagonalization with overlap
     ethr =  1.32E-10,  avg # of iterations =  6.0

     negative rho (up, down):  1.339E+00 0.000E+00

     total cpu time spent up to now is     1787.5 secs

     total energy              =   -7531.05865139 Ry
     estimated scf accuracy    <       0.00000494 Ry

     iteration # 87     ecut=    30.00 Ry     beta= 0.40
     Davidson diagonalization with overlap
     ethr =  1.32E-10,  avg # of iterations =  5.0

     negative rho (up, down):  1.339E+00 0.000E+00

     total cpu time spent up to now is     1807.7 secs

     total energy              =   -7531.05866235 Ry
     estimated scf accuracy    <       0.00000549 Ry

     iteration # 88     ecut=    30.00 Ry     beta= 0.40
     Davidson diagonalization with overlap
     ethr =  1.32E-10,  avg # of iterations =  5.0

     negative rho (up, down):  1.340E+00 0.000E+00

     total cpu time spent up to now is     1828.0 secs

     total energy              =   -7531.05866066 Ry
     estimated scf accuracy    <       0.00000191 Ry

     iteration # 89     ecut=    30.00 Ry     beta= 0.40
     Davidson diagonalization with overlap
     ethr =  1.32E-10,  avg # of iterations =  5.0

     negative rho (up, down):  1.340E+00 0.000E+00

     total cpu time spent up to now is     1848.1 secs

     total energy              =   -7531.05866778 Ry
     estimated scf accuracy    <       0.00000332 Ry

     iteration # 90     ecut=    30.00 Ry     beta= 0.40
     Davidson diagonalization with overlap
     ethr =  1.32E-10,  avg # of iterations =  5.0

     negative rho (up, down):  1.340E+00 0.000E+00

     total cpu time spent up to now is     1868.3 secs

     total energy              =   -7531.05867037 Ry
     estimated scf accuracy    <       0.00000273 Ry

     iteration # 91     ecut=    30.00 Ry     beta= 0.40
     Davidson diagonalization with overlap
     ethr =  1.32E-10,  avg # of iterations =  5.0

     negative rho (up, down):  1.340E+00 0.000E+00

     total cpu time spent up to now is     1888.4 secs

     total energy              =   -7531.05867396 Ry
     estimated scf accuracy    <       0.00000194 Ry

     iteration # 92     ecut=    30.00 Ry     beta= 0.40
     Davidson diagonalization with overlap
     ethr =  1.32E-10,  avg # of iterations =  5.0

     negative rho (up, down):  1.340E+00 0.000E+00

     total cpu time spent up to now is     1908.5 secs

     total energy              =   -7531.05867440 Ry
     estimated scf accuracy    <       0.00000105 Ry

     iteration # 93     ecut=    30.00 Ry     beta= 0.40
     Davidson diagonalization with overlap
     ethr =  1.32E-10,  avg # of iterations =  5.0

     negative rho (up, down):  1.340E+00 0.000E+00

     total cpu time spent up to now is     1928.8 secs

     total energy              =   -7531.05867609 Ry
     estimated scf accuracy    <       0.00000022 Ry

     iteration # 94     ecut=    30.00 Ry     beta= 0.40
     Davidson diagonalization with overlap
     ethr =  3.44E-11,  avg # of iterations =  5.0

     negative rho (up, down):  1.340E+00 0.000E+00

     total cpu time spent up to now is     1949.2 secs

     total energy              =   -7531.05867793 Ry
     estimated scf accuracy    <       0.00000014 Ry

     iteration # 95     ecut=    30.00 Ry     beta= 0.40
     Davidson diagonalization with overlap
     ethr =  2.14E-11,  avg # of iterations =  3.0

     negative rho (up, down):  1.340E+00 0.000E+00

     total cpu time spent up to now is     1969.3 secs

     End of self-consistent calculation

          k = 0.0000 0.0000 0.0000 ( 46193 PWs)   bands (ev):

   -57.3588 -57.3301 -57.3147 -57.2816 -57.2573 -57.2412 -57.2325 -57.2263
   -57.2195 -57.2100 -57.1928 -57.1830 -57.1767 -57.1683 -57.1659 -57.1644
   -57.1590 -57.1562 -57.1511 -57.1449 -57.1426 -57.1345 -57.1269 -57.1222
   -57.1181 -57.1135 -57.1103 -57.0946 -57.0472 -57.0308 -57.0187 -57.0137
   -42.2499 -33.7644 -33.7480 -33.7215 -33.7047 -33.7023 -33.6964 -33.6787
   -33.6757 -33.6673 -33.6603 -33.6519 -33.6487 -33.6423 -33.6288 -33.6257
   -33.6180 -33.6130 -33.6088 -33.5968 -33.5887 -33.5803 -33.5699 -33.5614
   -33.5590 -33.5475 -33.5469 -33.5430 -33.5390 -33.5207 -33.5178 -33.5071
   -33.5038 -33.4909 -33.4895 -33.4812 -33.4776 -33.4742 -33.4669 -33.4635
   -33.4583 -33.4564 -33.4437 -33.4418 -33.4367 -33.4275 -33.4249 -33.4174
   -33.4120 -33.4113 -33.4089 -33.4080 -33.3978 -33.3959 -33.3925 -33.3884
   -33.3842 -33.3831 -33.3788 -33.3774 -33.3682 -33.3649 -33.3633 -33.3563
   -33.3554 -33.3496 -33.3438 -33.3422 -33.3357 -33.3317 -33.3259 -33.3250
   -33.3218 -33.3157 -33.3128 -33.3101 -33.3031 -33.2979 -33.2958 -33.2874
   -33.2867 -33.2775 -33.2746 -33.2653 -33.2566 -33.2454 -33.2447 -33.2384
   -33.2257 -33.2240 -33.2114 -33.1957 -33.1870 -33.1819 -33.1700 -33.1642
   -33.1450 -23.3008 -23.2234 -23.2197 -18.0790 -17.9247 -17.8777 -17.6893
   -17.6234 -17.4955 -17.4821 -17.4674 -17.4418 -17.4358 -17.4259 -17.4214
   -17.4083 -17.3818 -17.3684 -17.3392 -17.3163 -17.2809 -17.2708 -17.2676
   -17.2625 -17.2498 -17.2428 -17.2405 -17.2391 -17.2312 -17.2225 -17.1838
   -17.1718 -17.1246 -17.0912 -17.0545 -10.3247  -9.9387  -9.9255  -9.9184
    -9.7949  -9.7842  -9.7351  -9.2795  -9.2083  -9.0716  -9.0246  -8.9970
    -8.9942  -8.9000  -8.8865  -8.8624  -5.5019  -5.3978  -5.3812  -5.0592
    -4.9349  -4.6653  -4.6604  -4.6437  -4.6185  -4.6078  -4.5885  -4.5687
    -4.5616  -4.5287  -4.4315  -4.4133  -4.3878  -4.3784  -4.3696  -4.3592
    -4.3522  -4.3271  -4.3163  -4.3092  -4.2862  -4.2847  -4.2735  -4.2641
    -4.1322  -4.1175  -4.0990  -4.0845  -4.0748  -4.0050  -3.9993  -3.9781
    -3.9709  -3.9468  -3.9258  -3.9187  -3.8893  -3.8841  -3.8780  -3.8700
    -3.8627  -3.7979  -3.7613  -3.5886  -3.5722  -3.5527  -3.5492  -3.5414
    -3.5164  -3.5089  -3.5065  -3.5013  -3.4909  -3.4804  -3.4748  -3.4602
    -3.4464  -3.4412  -3.4339  -3.4231  -3.3845  -3.3778  -3.3759  -3.3675
    -3.3435  -3.3171  -3.3068  -3.2986  -3.2928  -3.2863  -3.2820  -3.2773
    -3.2707  -3.2618  -3.1631  -3.1392  -3.1230  -3.1121  -3.0986  -3.0698
    -3.0343  -3.0304  -2.9794  -2.9750  -2.9386  -2.9286  -2.9265  -2.9080
    -2.8827  -2.8105  -2.7984  -2.7811  -2.5539  -2.5267  -2.5095  -2.1604
    -2.1514  -2.0377  -1.9352  -1.9128  -1.8916  -1.8795  -1.8314  -1.8254
    -1.8112  -1.7719  -1.7473  -1.7446  -1.7185  -1.6875  -1.6745  -1.6635
    -1.6414  -1.6209  -1.5467  -1.5203  -1.4939  -1.4277  -1.3765  -0.8793
    -0.8753  -0.8510  -0.6962  -0.6745  -0.6515  -0.5854  -0.5051  -0.4875
    -0.4720  -0.4535  -0.4139  -0.3711  -0.3417  -0.3018  -0.2693  -0.2507
    -0.2326  -0.1443   0.9202   0.9317   1.0688   1.0940   1.1385   1.3863
     1.5336   1.5826   1.6097   1.6483   1.6547   1.7123   1.7930   1.8120
     2.0526   2.1059   2.1084   2.1183   2.1417   2.1625   2.5037   2.5573
     2.5669   2.5750   2.5801   2.6053   2.6161   2.6288   2.6468   2.6644
     2.6834   2.6887   2.7162   2.7287   2.7917   2.7940   2.8304   2.8426
     2.8470   2.8582   2.8808   2.9068   2.9267   2.9571   2.9662   2.9742
     2.9923   2.9942   3.0043   3.0112   3.0339   3.0431   3.1019   3.2616
     3.2660   3.3032   3.3096   3.3119   3.3165   3.3439   3.3695   3.3844
     3.4088   3.4226   3.4325   3.4401   3.4489   3.4556

     the Fermi energy is     1.0673 ev

!    total energy              =   -7531.05868417 Ry
     estimated scf accuracy    <       0.00000009 Ry
     smearing contrib. (-TS)   =      -0.00397636 Ry
     internal energy E=F+TS    =   -7531.05470781 Ry

     The total energy is F=E-TS. E is the sum of the following terms:
     one-electron contribution =  -36410.59731895 Ry
     hartree contribution      =   18273.94116559 Ry
     xc contribution           =    -885.05189859 Ry
     ewald contribution        =   13959.21705797 Ry
     one-center paw contrib.   =   -2468.56371383 Ry

     convergence has been achieved in  95 iterations

     negative rho (up, down):  1.340E+00 0.000E+00

     Forces acting on atoms (cartesian axes, Ry/au):

     atom    1 type  1   force =     0.01376250    0.00350572    0.01179898
     atom    2 type  1   force =     0.00287197    0.00086652    0.00500146
     atom    3 type  1   force =    -0.01814360   -0.00162773    0.02557950
     atom    4 type  1   force =    -0.00432522    0.00122668    0.00477036
     atom    5 type  1   force =     0.03159264    0.00621680    0.02165299
     atom    6 type  1   force =     0.01597478    0.01734444    0.01491175
     atom    7 type  1   force =     0.00251920   -0.00029724    0.00449696
     atom    8 type  1   force =     0.00646689   -0.03163089    0.02073817
     atom    9 type  1   force =    -0.01212041    0.00452832    0.00899151
     atom   10 type  1   force =     0.00034872   -0.01317177    0.01042551
     atom   11 type  1   force =     0.00560530   -0.00161812    0.00417528
     atom   12 type  1   force =    -0.00887481   -0.01449950    0.01391991
     atom   13 type  1   force =     0.00024565   -0.00101915    0.00179853
     atom   14 type  1   force =    -0.01870191   -0.00198113    0.01032137
     atom   15 type  1   force =    -0.01777657    0.01927841    0.01229174
     atom   16 type  1   force =     0.00129825    0.00115031    0.00137914
     atom   17 type  3   force =    -0.00611186   -0.00261582    0.00841677
     atom   18 type  3   force =    -0.00724937   -0.00545438    0.00496495
     atom   19 type  3   force =     0.00394599    0.00272830    0.00636419
     atom   20 type  3   force =    -0.00158549    0.01455240    0.00498069
     atom   21 type  3   force =     0.03036599   -0.01730715   -0.00734882
     atom   22 type  3   force =     0.00282931   -0.00504984    0.00360780
     atom   23 type  3   force =     0.01629039   -0.00512588    0.00823176
     atom   24 type  3   force =     0.00365891   -0.00664447    0.00578548
     atom   25 type  3   force =    -0.01734564   -0.01176720    0.00757987
     atom   26 type  3   force =    -0.00497026    0.00405651    0.00338849
     atom   27 type  3   force =    -0.00116193    0.00038593   -0.00254268
     atom   28 type  3   force =     0.01640827    0.00915558    0.01592606
     atom   29 type  3   force =     0.05055026    0.03649265    0.03618511
     atom   30 type  3   force =     0.00127664    0.00933776    0.00298668
     atom   31 type  3   force =     0.00272460    0.01424679    0.00678132
     atom   32 type  3   force =    -0.02304072   -0.05121626    0.04949045
     atom   33 type  3   force =    -0.00199304    0.02830315   -0.00645468
     atom   34 type  3   force =     0.01057210   -0.00836249    0.00496323
     atom   35 type  3   force =     0.00804303   -0.01040142    0.00617269
     atom   36 type  3   force =    -0.05049409    0.00745975    0.04803480
     atom   37 type  3   force =    -0.01478373    0.00093960    0.00810445
     atom   38 type  3   force =    -0.00235550    0.00538950    0.00450323
     atom   39 type  3   force =    -0.01562649   -0.00529771    0.00465955
     atom   40 type  3   force =    -0.00541879   -0.00027790    0.00004873
     atom   41 type  3   force =     0.00550251    0.00193669    0.00673165
     atom   42 type  3   force =     0.00706964    0.00276812    0.00387814
     atom   43 type  3   force =    -0.00688613   -0.00484364    0.00594275
     atom   44 type  3   force =     0.00919319   -0.00221791    0.00468078
     atom   45 type  3   force =    -0.00191906   -0.00391227    0.00034120
     atom   46 type  3   force =    -0.00653246   -0.01523923    0.01022751
     atom   47 type  3   force =     0.00006112   -0.00059238   -0.00021432
     atom   48 type  3   force =    -0.00359740    0.01314087    0.00656975
     atom   49 type  4   force =     0.00992693   -0.04049827   -0.01273665
     atom   50 type  4   force =    -0.02611922    0.02368925   -0.02508756
     atom   51 type  4   force =    -0.01337523   -0.01077991   -0.03325650
     atom   52 type  4   force =    -0.01671295    0.01661820    0.00161602
     atom   53 type  4   force =    -0.02290447    0.01293002   -0.01861651
     atom   54 type  4   force =     0.00101568   -0.02325296   -0.01989243
     atom   55 type  4   force =     0.00131013   -0.01494436    0.00454799
     atom   56 type  4   force =    -0.00134290   -0.00154281    0.00710634
     atom   57 type  4   force =     0.00485615    0.02940311   -0.02433614
     atom   58 type  4   force =    -0.03307044   -0.00562803   -0.04072494
     atom   59 type  4   force =     0.05574555    0.02824667   -0.04891354
     atom   60 type  4   force =    -0.00221881    0.02675879   -0.01629672
     atom   61 type  4   force =     0.00868795    0.04155060   -0.00823645
     atom   62 type  4   force =     0.01621301   -0.01239417   -0.01572158
     atom   63 type  4   force =    -0.00019658    0.00231219    0.00636584
     atom   64 type  4   force =     0.02807584   -0.00911782   -0.02525158
     atom   65 type  4   force =     0.03427565   -0.01154151   -0.00323567
     atom   66 type  4   force =     0.01399258    0.00896601   -0.00475800
     atom   67 type  4   force =     0.01082688    0.00691845   -0.00728200
     atom   68 type  4   force =    -0.04020076   -0.03051124    0.00132114
     atom   69 type  4   force =     0.00383190    0.00871397   -0.00883033
     atom   70 type  4   force =    -0.00184442    0.00170856   -0.01557248
     atom   71 type  4   force =     0.00102525   -0.00250567    0.00097882
     atom   72 type  4   force =     0.01098587   -0.00258605   -0.01182198
     atom   73 type  4   force =    -0.00417485    0.00213192    0.00391123
     atom   74 type  4   force =    -0.02617373    0.00855001   -0.01093261
     atom   75 type  4   force =     0.00281216   -0.00365308    0.00563328
     atom   76 type  4   force =    -0.00296441   -0.00106081   -0.02240410
     atom   77 type  4   force =    -0.01732463   -0.01698022   -0.01583760
     atom   78 type  4   force =    -0.00163135   -0.01839390    0.00057390
     atom   79 type  4   force =     0.01223554    0.00383254   -0.00803781
     atom   80 type  4   force =    -0.00105346    0.00364481    0.00356417
     atom   81 type  2   force =    -0.00267223   -0.00342361   -0.07307628

     Total force =     0.258866     Total SCF correction =     0.000714


     Computing stress (Cartesian axis) and pressure


     negative rho (up, down):  1.340E+00 0.000E+00
          total   stress  (Ry/bohr**3)                   (kbar)     P=     -112.19
  -0.00077584   0.00000224  -0.00000057         -114.13        0.33       -0.08
   0.00000224  -0.00077870   0.00000061            0.33     -114.55        0.09
  -0.00000057   0.00000061  -0.00073336           -0.08        0.09     -107.88


     Writing all to output data dir /root/qe_scratch/cand142_B_Ti2CO2_Ca.save/ :
     XML data file, charge density, pseudopotentials, collected wavefunctions
 
     init_run     :     21.07s CPU     26.41s WALL (       1 calls)
     electrons    :   1612.53s CPU   1942.07s WALL (       1 calls)
     forces       :      1.78s CPU      1.84s WALL (       1 calls)
     stress       :      2.78s CPU      2.82s WALL (       1 calls)

     Called by init_run:
     wfcinit      :      1.00s CPU      1.16s WALL (       1 calls)
     potinit      :     18.79s CPU     23.45s WALL (       1 calls)
     hinit0       :      0.70s CPU      0.83s WALL (       1 calls)

     Called by electrons:
     c_bands      :    198.42s CPU    198.78s WALL (      95 calls)
     sum_band     :     23.81s CPU     23.88s WALL (      95 calls)
     v_of_rho     :      8.02s CPU     10.47s WALL (      96 calls)
     newd         :     30.94s CPU     31.11s WALL (      96 calls)
                                       31.11s GPU  (      96 calls)
     PAW_pot      :   1345.25s CPU   1671.83s WALL (      96 calls)
     mix_rho      :      6.08s CPU      6.26s WALL (      95 calls)

     Called by c_bands:
     init_us_2    :      0.56s CPU      0.57s WALL (     191 calls)
     cegterg      :    196.31s CPU    196.57s WALL (      95 calls)

     Called by *egterg:
     cdiaghg      :     21.43s CPU     21.49s WALL (     677 calls)
                                       21.49s GPU  (     677 calls)
     h_psi        :     73.32s CPU     73.66s WALL (     678 calls)
                                       73.62s GPU  (     678 calls)
     s_psi        :      1.75s CPU      1.77s WALL (     678 calls)
     g_psi        :      0.00s CPU      0.25s WALL (     582 calls)
                                        0.25s GPU  (     582 calls)

     Called by h_psi:
     h_psi:calbec :      0.14s CPU     27.86s WALL (     678 calls)
                                       27.86s GPU  (     678 calls)
     vloc_psi     :     22.87s CPU     23.04s WALL (     678 calls)
                                       23.04s GPU  (     678 calls)
     add_vuspsi   :      1.85s CPU     22.58s WALL (     678 calls)
                                       22.58s GPU  (     678 calls)

     General routines
     calbec       :      0.14s CPU      0.28s WALL (     778 calls)
     fft          :      9.77s CPU     12.84s WALL (    1271 calls)
                                        0.25s GPU  (    1175 calls)
     ffts         :      5.03s CPU      6.38s WALL (     191 calls)
                                        0.01s GPU  (      95 calls)
     fftw         :      0.22s CPU     22.69s WALL (   15513 calls)
                                       22.63s GPU  (   15513 calls)
     interpolate  :     15.67s CPU     19.95s WALL (      96 calls)
 
     Parallel routines
 
     PWSCF        :  27m19.20s CPU  32m54.54s WALL

 
   This run was terminated on:  14:14: 6   6May2026            

=------------------------------------------------------------------------------=
   JOB DONE.
=------------------------------------------------------------------------------=
Warning: ieee_invalid is signaling
Warning: ieee_divide_by_zero is signaling
Warning: ieee_underflow is signaling
Warning: ieee_inexact is signaling
FORTRAN STOP
