--------------------------------------------------------------------------
WARNING: Open MPI tried to bind a process but failed.  This is a
warning only; your job will continue, though performance may
be degraded.

  Local host:        3253031b5b37
  Application name:  /root/qe-7.3.1/bin/pw.x
  Error message:     failed to bind memory
  Location:          ../../../../../orte/mca/rtc/hwloc/rtc_hwloc.c:447

--------------------------------------------------------------------------

     Program PWSCF v.7.3.1 starts on  7May2026 at  4:40:34 

     This program is part of the open-source Quantum ESPRESSO suite
     for quantum simulation of materials; please cite
         "P. Giannozzi et al., J. Phys.:Condens. Matter 21 395502 (2009);
         "P. Giannozzi et al., J. Phys.:Condens. Matter 29 465901 (2017);
         "P. Giannozzi et al., J. Chem. Phys. 152 154105 (2020);
          URL http://www.quantum-espresso.org", 
     in publications or presentations arising from this work. More details at
     http://www.quantum-espresso.org/quote

     Parallel version (MPI & OpenMP), running on       8 processor cores
     Number of MPI processes:                 1
     Threads/MPI process:                     8

     MPI processes distributed on     1 nodes
     89882 MiB available memory on the printing compute node when the environment starts
 
     Reading input from cand278_A_ZrSe2_In.in

     Current dimensions of program PWSCF are:
     Max number of different atomic species (ntypx) = 10
     Max number of k-points (npk) =  40000
     Max angular momentum in pseudopotentials (lmaxx) =  4
     file In.UPF: wavefunction(s)  5S 4D renormalized
     file Zr.UPF: wavefunction(s)  4S 4P renormalized
 
     Subspace diagonalization in iterative solution of the eigenvalue problem:
     a serial algorithm will be used

 
     G-vector sticks info
     --------------------
     sticks:   dense  smooth     PW     G-vecs:    dense   smooth      PW
     Sum        5731    3829    955               560517   305291   38189
 
     Using Slab Decomposition
 


     bravais-lattice index     =            0
     lattice parameter (alat)  =      21.5136  a.u.
     unit-cell volume          =   13748.1444 (a.u.)^3
     number of atoms/cell      =           28
     number of atomic types    =            3
     number of electrons       =       229.00
     number of Kohn-Sham states=          138
     kinetic-energy cutoff     =      30.0000  Ry
     charge density cutoff     =     180.0000  Ry
     scf convergence threshold =      1.0E-07
     mixing beta               =       0.4000
     number of iterations used =            8  plain     mixing
     Exchange-correlation= SLA  PW   PBX  PBC
                           (   1   4   3   4   0   0   0)

     GPU acceleration is ACTIVE.  1 visible GPUs per MPI rank


     celldm(1)=  21.513613  celldm(2)=   0.000000  celldm(3)=   0.000000
     celldm(4)=   0.000000  celldm(5)=   0.000000  celldm(6)=   0.000000

     crystal axes: (cart. coord. in units of alat)
               a(1) = (   1.000000   0.000000   0.000000 )  
               a(2) = (  -0.500000   0.866025   0.000000 )  
               a(3) = (   0.000000   0.000000   1.594312 )  

     reciprocal axes: (cart. coord. in units 2 pi/alat)
               b(1) = (  1.000000  0.577350 -0.000000 )  
               b(2) = (  0.000000  1.154701  0.000000 )  
               b(3) = (  0.000000 -0.000000  0.627230 )  


     PseudoPot. # 1 for In read from file:
     /root/qe_pseudos/In.UPF
     MD5 check sum: 7267d4f9f57825930b619e54710f1f3b
     Pseudo is Ultrasoft + core correction, Zval = 13.0
     Generated using &quot;atomic&quot; code by A. Dal Corso  v.6.3
     Using radial grid of 1241 points,  6 beta functions with: 
                l(1) =   0
                l(2) =   0
                l(3) =   1
                l(4) =   1
                l(5) =   2
                l(6) =   2
     Q(r) pseudized with 0 coefficients 


     PseudoPot. # 2 for Se read from file:
     /root/qe_pseudos/Se.UPF
     MD5 check sum: 8e2a6847b5cb9faee9497ebb573e71ea
     Pseudo is Ultrasoft + core correction, Zval =  6.0
     Generated using &quot;atomic&quot; code by A. Dal Corso  v.6.3
     Using radial grid of 1211 points,  4 beta functions with: 
                l(1) =   0
                l(2) =   0
                l(3) =   1
                l(4) =   1
     Q(r) pseudized with 0 coefficients 


     PseudoPot. # 3 for Zr read from file:
     /root/qe_pseudos/Zr.UPF
     MD5 check sum: 02112c41713a0468aff2bb39ef194e36
     Pseudo is Projector augmented-wave + core cor, Zval = 12.0
     Generated using &quot;atomic&quot; code by A. Dal Corso  v.6.2.2
     Shape of augmentation charge: PSQ
     Using radial grid of 1225 points,  6 beta functions with: 
                l(1) =   0
                l(2) =   0
                l(3) =   1
                l(4) =   1
                l(5) =   2
                l(6) =   2
     Q(r) pseudized with 0 coefficients 


     atomic species   valence    mass     pseudopotential
     In               13.00   114.81800     In( 1.00)
     Se                6.00    78.97100     Se( 1.00)
     Zr               12.00    91.22400     Zr( 1.00)

     No symmetry found



   Cartesian axes

     site n.     atom                  positions (alat units)
         1        Se     tau(   1) = (   0.5008504   0.6755190   0.9341607  )
         2        Se     tau(   2) = (   0.4985296   0.4797638   0.6585824  )
         3        Se     tau(   3) = (   0.6692530   0.3844870   0.9345886  )
         4        Se     tau(   4) = (   0.6643225   0.1886702   0.6568414  )
         5        Se     tau(   5) = (   0.8352656   0.0978186   0.9361823  )
         6        Se     tau(   6) = (  -0.0035409   0.7685206   0.6527655  )
         7        Se     tau(   7) = (   0.1672262   0.6712411   0.9412550  )
         8        Se     tau(   8) = (   0.1639800   0.4843220   0.6602962  )
         9        Se     tau(   9) = (   0.3295940   0.7686735   0.6568259  )
        10        Se     tau(  10) = (   0.3350196   0.1896549   0.6596468  )
        11        Se     tau(  11) = (   0.3342579   0.3833377   0.9324648  )
        12        Se     tau(  12) = (  -0.3312568   0.7688237   0.6578308  )
        13        Se     tau(  13) = (  -0.1674573   0.6743746   0.9364750  )
        14        Se     tau(  14) = (  -0.1664352   0.4839640   0.6572083  )
        15        Se     tau(  15) = (  -0.0006907   0.3813227   0.9381130  )
        16        Se     tau(  16) = (   0.0000023   0.1923558   0.6599602  )
        17        Se     tau(  17) = (   0.1619101   0.0985095   0.9393164  )
        18        Se     tau(  18) = (   0.4984496   0.0958192   0.9397555  )
        19        Zr     tau(  19) = (   0.1698476   0.2903193   0.7895119  )
        20        Zr     tau(  20) = (   0.3436810  -0.0030672   0.7980990  )
        21        Zr     tau(  21) = (   0.0033232   0.5853339   0.7997735  )
        22        Zr     tau(  22) = (  -0.3325695   0.5774849   0.7941307  )
        23        Zr     tau(  23) = (   0.6647094  -0.0014792   0.8024383  )
        24        Zr     tau(  24) = (   0.5017349   0.2888991   0.7959513  )
        25        Zr     tau(  25) = (  -0.1716639   0.2916542   0.7894918  )
        26        Zr     tau(  26) = (   0.3330230   0.5804825   0.7963142  )
        27        Zr     tau(  27) = (   0.0000481  -0.0048824   0.7895810  )
        28        In     tau(  28) = (  -0.0014140   0.1928316   1.0482725  )

     number of k points=     1  Methfessel-Paxton smearing, width (Ry)=  0.0100
                       cart. coord. in units 2pi/alat
        k(    1) = (   0.0000000   0.0000000   0.0000000), wk =   2.0000000

     Dense  grid:   560517 G-vectors     FFT dimensions: (  96,  96, 150)

     Smooth grid:   305291 G-vectors     FFT dimensions: (  75,  75, 120)

     Estimated max dynamical RAM per process >       2.61 GB

     Check: negative core charge=   -0.000002

     Initial potential from superposition of free atoms

     starting charge     228.9756, renormalised to     229.0000

     negative rho (up, down):  1.851E-02 0.000E+00
     Starting wfcs are  198 randomized atomic wfcs
     Checking if some PAW data can be deallocated... 

     total cpu time spent up to now is       13.8 secs

     Self-consistent Calculation

     iteration #  1     ecut=    30.00 Ry     beta= 0.40
     Davidson diagonalization with overlap
     ethr =  1.00E-02,  avg # of iterations =  2.0

     Threshold (ethr) on eigenvalues was too large:
     Diagonalizing with lowered threshold

     Davidson diagonalization with overlap
     ethr =  5.78E-04,  avg # of iterations =  2.0

     negative rho (up, down):  1.880E-02 0.000E+00

     total cpu time spent up to now is       19.0 secs

     total energy              =   -3281.74965720 Ry
     estimated scf accuracy    <       1.40489463 Ry

     iteration #  2     ecut=    30.00 Ry     beta= 0.40
     Davidson diagonalization with overlap
     ethr =  6.13E-04,  avg # of iterations =  3.0

     negative rho (up, down):  1.894E-02 0.000E+00

     total cpu time spent up to now is       23.9 secs

     total energy              =   -3281.86207730 Ry
     estimated scf accuracy    <       0.54411064 Ry

     iteration #  3     ecut=    30.00 Ry     beta= 0.40
     Davidson diagonalization with overlap
     ethr =  2.38E-04,  avg # of iterations =  3.0

     negative rho (up, down):  1.916E-02 0.000E+00

     total cpu time spent up to now is       28.6 secs

     total energy              =   -3281.93191931 Ry
     estimated scf accuracy    <       0.62195995 Ry

     iteration #  4     ecut=    30.00 Ry     beta= 0.40
     Davidson diagonalization with overlap
     ethr =  2.38E-04,  avg # of iterations =  2.0

     negative rho (up, down):  1.922E-02 0.000E+00

     total cpu time spent up to now is       33.3 secs

     total energy              =   -3282.00409327 Ry
     estimated scf accuracy    <       0.06204446 Ry

     iteration #  5     ecut=    30.00 Ry     beta= 0.40
     Davidson diagonalization with overlap
     ethr =  2.71E-05,  avg # of iterations =  5.0
     Minimization algorithm failed to find Fermi energy: reverting to bisection
     Possible cause: smearing is larger than the electronic band-gap.

     negative rho (up, down):  1.931E-02 0.000E+00

     total cpu time spent up to now is       38.1 secs

     total energy              =   -3282.01193255 Ry
     estimated scf accuracy    <       0.04080757 Ry

     iteration #  6     ecut=    30.00 Ry     beta= 0.40
     Davidson diagonalization with overlap
     ethr =  1.78E-05,  avg # of iterations =  2.0

     negative rho (up, down):  1.942E-02 0.000E+00

     total cpu time spent up to now is       42.9 secs

     total energy              =   -3282.01511569 Ry
     estimated scf accuracy    <       0.01077322 Ry

     iteration #  7     ecut=    30.00 Ry     beta= 0.40
     Davidson diagonalization with overlap
     ethr =  4.70E-06,  avg # of iterations = 14.0

     negative rho (up, down):  1.951E-02 0.000E+00

     total cpu time spent up to now is       47.9 secs

     total energy              =   -3282.01696826 Ry
     estimated scf accuracy    <       0.00350730 Ry

     iteration #  8     ecut=    30.00 Ry     beta= 0.40
     Davidson diagonalization with overlap
     ethr =  1.53E-06,  avg # of iterations =  2.0

     negative rho (up, down):  1.951E-02 0.000E+00

     total cpu time spent up to now is       52.6 secs

     total energy              =   -3282.01717272 Ry
     estimated scf accuracy    <       0.00145697 Ry

     iteration #  9     ecut=    30.00 Ry     beta= 0.40
     Davidson diagonalization with overlap
     ethr =  6.36E-07,  avg # of iterations =  2.0

     negative rho (up, down):  1.951E-02 0.000E+00

     total cpu time spent up to now is       57.3 secs

     total energy              =   -3282.01727728 Ry
     estimated scf accuracy    <       0.00037551 Ry

     iteration # 10     ecut=    30.00 Ry     beta= 0.40
     Davidson diagonalization with overlap
     ethr =  1.64E-07,  avg # of iterations =  6.0

     negative rho (up, down):  1.950E-02 0.000E+00

     total cpu time spent up to now is       62.2 secs

     total energy              =   -3282.01732920 Ry
     estimated scf accuracy    <       0.00002045 Ry

     iteration # 11     ecut=    30.00 Ry     beta= 0.40
     Davidson diagonalization with overlap
     ethr =  8.93E-09,  avg # of iterations =  6.0

     negative rho (up, down):  1.950E-02 0.000E+00

     total cpu time spent up to now is       67.2 secs

     total energy              =   -3282.01733615 Ry
     estimated scf accuracy    <       0.00003338 Ry

     iteration # 12     ecut=    30.00 Ry     beta= 0.40
     Davidson diagonalization with overlap
     ethr =  8.93E-09,  avg # of iterations =  2.0

     negative rho (up, down):  1.950E-02 0.000E+00

     total cpu time spent up to now is       71.9 secs

     total energy              =   -3282.01733748 Ry
     estimated scf accuracy    <       0.00000715 Ry

     iteration # 13     ecut=    30.00 Ry     beta= 0.40
     Davidson diagonalization with overlap
     ethr =  3.12E-09,  avg # of iterations =  4.0

     negative rho (up, down):  1.949E-02 0.000E+00

     total cpu time spent up to now is       76.7 secs

     total energy              =   -3282.01733909 Ry
     estimated scf accuracy    <       0.00000191 Ry

     iteration # 14     ecut=    30.00 Ry     beta= 0.40
     Davidson diagonalization with overlap
     ethr =  8.36E-10,  avg # of iterations =  5.0

     negative rho (up, down):  1.949E-02 0.000E+00

     total cpu time spent up to now is       81.6 secs

     total energy              =   -3282.01733909 Ry
     estimated scf accuracy    <       0.00000146 Ry

     iteration # 15     ecut=    30.00 Ry     beta= 0.40
     Davidson diagonalization with overlap
     ethr =  6.39E-10,  avg # of iterations =  2.0

     negative rho (up, down):  1.949E-02 0.000E+00

     total cpu time spent up to now is       86.3 secs

     total energy              =   -3282.01733901 Ry
     estimated scf accuracy    <       0.00000049 Ry

     iteration # 16     ecut=    30.00 Ry     beta= 0.40
     Davidson diagonalization with overlap
     ethr =  2.15E-10,  avg # of iterations =  5.0

     negative rho (up, down):  1.949E-02 0.000E+00

     total cpu time spent up to now is       91.1 secs

     End of self-consistent calculation

          k = 0.0000 0.0000 0.0000 ( 38189 PWs)   bands (ev):

   -50.4895 -50.4625 -50.4576 -50.4335 -50.4288 -50.4248 -50.4143 -50.3810
   -50.3772 -28.5079 -28.5036 -28.4991 -28.4961 -28.4885 -28.4781 -28.4731
   -28.4671 -28.4644 -28.4562 -28.4530 -28.4498 -28.4444 -28.4337 -28.4298
   -28.4268 -28.4125 -28.3912 -28.3892 -28.3774 -28.3676 -28.3570 -28.3512
   -28.3462 -28.3261 -28.3189 -28.3142 -15.3186 -15.3178 -14.8614 -14.8597
   -14.8572 -14.1933 -13.5316 -13.2329 -13.1553 -13.1329 -13.1134 -13.0966
   -13.0038 -12.9363 -12.8825 -12.8643 -12.8536 -12.8286 -12.8205 -12.7940
   -12.7586 -12.7222 -12.7095  -6.8383  -4.9903  -4.8865  -4.8616  -4.7677
    -4.7519  -4.7351  -4.6833  -4.6623  -4.5529  -4.3709  -4.3091  -4.2958
    -4.2912  -4.2453  -4.2308  -4.2043  -4.1288  -4.1156  -3.8663  -3.8209
    -3.7801  -3.6368  -3.6017  -3.5697  -3.4146  -3.3978  -3.3419  -3.3338
    -3.2973  -3.2827  -3.2537  -3.1940  -3.1789  -3.1626  -2.9884  -2.9592
    -2.9372  -2.9129  -2.7035  -2.2987  -2.2807  -2.2009  -2.1722  -2.1349
    -2.0802  -2.0432  -2.0229  -2.0130  -1.9734  -1.9222  -1.9145  -1.0106
    -1.0088  -0.8438  -0.3361  -0.2663  -0.2333  -0.2185  -0.2009  -0.1128
     0.2431   0.2596   0.7773   0.9436   0.9709   1.3850   1.3999   1.4375
     1.4737   1.4986   1.5308   1.5621   1.5961   1.6093   1.6319   1.6755
     1.6974   1.8168

     the Fermi energy is    -0.3430 ev

!    total energy              =   -3282.01733908 Ry
     estimated scf accuracy    <       0.00000008 Ry
     smearing contrib. (-TS)   =      -0.00039788 Ry
     internal energy E=F+TS    =   -3282.01694120 Ry

     The total energy is F=E-TS. E is the sum of the following terms:
     one-electron contribution =   -5427.26351425 Ry
     hartree contribution      =    2734.81454350 Ry
     xc contribution           =    -324.21040744 Ry
     ewald contribution        =    1624.50861543 Ry
     one-center paw contrib.   =   -1889.86617845 Ry

     convergence has been achieved in  16 iterations

     negative rho (up, down):  1.949E-02 0.000E+00

     Forces acting on atoms (cartesian axes, Ry/au):

     atom    1 type  2   force =    -0.00010139    0.00071091   -0.00015321
     atom    2 type  2   force =    -0.00053764   -0.00055744   -0.00121400
     atom    3 type  2   force =     0.00095795   -0.00075069    0.00001807
     atom    4 type  2   force =     0.00108881   -0.00375458   -0.00051583
     atom    5 type  2   force =    -0.05123720   -0.02935192   -0.03848968
     atom    6 type  2   force =     0.00207463    0.00061705    0.00075940
     atom    7 type  2   force =    -0.00160513   -0.00070482    0.00114541
     atom    8 type  2   force =    -0.00063820    0.00060415   -0.00257011
     atom    9 type  2   force =    -0.00210177    0.00077010   -0.00097495
     atom   10 type  2   force =    -0.00040536   -0.00051432   -0.00071379
     atom   11 type  2   force =    -0.00265801   -0.00123690    0.00061907
     atom   12 type  2   force =    -0.00016386    0.00001277    0.00006333
     atom   13 type  2   force =    -0.00159496   -0.00016403    0.00113284
     atom   14 type  2   force =     0.00021295   -0.00026052   -0.00041019
     atom   15 type  2   force =    -0.00153669    0.06104462   -0.04088814
     atom   16 type  2   force =    -0.00068325   -0.00036767   -0.00103830
     atom   17 type  2   force =     0.05248109   -0.03259311   -0.04071043
     atom   18 type  2   force =    -0.00071585   -0.00105802    0.00074038
     atom   19 type  3   force =     0.00341942    0.00034858   -0.00079982
     atom   20 type  3   force =    -0.00055162    0.00118460    0.00077662
     atom   21 type  3   force =     0.00191775   -0.00220041    0.00284403
     atom   22 type  3   force =     0.00206199    0.00142768   -0.00199599
     atom   23 type  3   force =     0.00195131    0.00258993    0.00272051
     atom   24 type  3   force =    -0.00136835    0.00304324   -0.00036834
     atom   25 type  3   force =    -0.00087836    0.00269511   -0.00570365
     atom   26 type  3   force =     0.00087942    0.00047762    0.00075195
     atom   27 type  3   force =     0.00354904   -0.00110364   -0.00365483
     atom   28 type  1   force =    -0.00381674   -0.00090832    0.12862968

     Total force =     0.180567     Total SCF correction =     0.000849


     Computing stress (Cartesian axis) and pressure


     negative rho (up, down):  1.949E-02 0.000E+00
          total   stress  (Ry/bohr**3)                   (kbar)     P=      -11.23
  -0.00005994  -0.00000563  -0.00000249           -8.82       -0.83       -0.37
  -0.00000563  -0.00005746  -0.00000055           -0.83       -8.45       -0.08
  -0.00000249  -0.00000055  -0.00011159           -0.37       -0.08      -16.42


     Writing all to output data dir /root/qe_scratch/cand278_A_ZrSe2_In.save/ :
     XML data file, charge density, pseudopotentials, collected wavefunctions
 
     init_run     :      9.99s CPU     12.97s WALL (       1 calls)
     electrons    :     64.39s CPU     77.37s WALL (       1 calls)
     forces       :      0.98s CPU      1.01s WALL (       1 calls)
     stress       :      0.69s CPU      0.73s WALL (       1 calls)

     Called by init_run:
     wfcinit      :      0.27s CPU      0.44s WALL (       1 calls)
     potinit      :      8.72s CPU     11.24s WALL (       1 calls)
     hinit0       :      0.52s CPU      0.62s WALL (       1 calls)

     Called by electrons:
     c_bands      :      5.41s CPU      5.47s WALL (      17 calls)
     sum_band     :      1.51s CPU      1.51s WALL (      17 calls)
     v_of_rho     :      1.30s CPU      1.78s WALL (      17 calls)
     newd         :      4.56s CPU      4.66s WALL (      17 calls)
                                        4.66s GPU  (      17 calls)
     PAW_pot      :     52.18s CPU     64.80s WALL (      17 calls)
     mix_rho      :      0.66s CPU      0.72s WALL (      17 calls)

     Called by c_bands:
     init_us_2    :      0.04s CPU      0.04s WALL (      35 calls)
     cegterg      :      5.29s CPU      5.35s WALL (      17 calls)

     Called by *egterg:
     cdiaghg      :      0.74s CPU      0.77s WALL (      83 calls)
                                        0.77s GPU  (      83 calls)
     h_psi        :      2.40s CPU      2.58s WALL (      85 calls)
                                        2.58s GPU  (      85 calls)
     s_psi        :      0.09s CPU      0.09s WALL (      85 calls)
     g_psi        :      0.00s CPU      0.01s WALL (      67 calls)
                                        0.01s GPU  (      67 calls)

     Called by h_psi:
     h_psi:calbec :      0.12s CPU      0.71s WALL (      85 calls)
                                        0.71s GPU  (      85 calls)
     vloc_psi     :      1.30s CPU      1.34s WALL (      85 calls)
                                        1.34s GPU  (      85 calls)
     add_vuspsi   :      0.09s CPU      0.51s WALL (      85 calls)
                                        0.51s GPU  (      85 calls)

     General routines
     calbec       :      0.12s CPU      0.25s WALL (     107 calls)
     fft          :      3.99s CPU      5.14s WALL (     245 calls)
                                        0.04s GPU  (     228 calls)
     ffts         :      3.15s CPU      4.21s WALL (      34 calls)
                                        0.00s GPU  (      17 calls)
     fftw         :      0.03s CPU      1.38s WALL (     957 calls)
                                        1.38s GPU  (     957 calls)
     interpolate  :      7.25s CPU      9.42s WALL (      17 calls)
 
     Parallel routines
 
     PWSCF        :   1m17.00s CPU   1m33.19s WALL

 
   This run was terminated on:   4:42: 8   7May2026            

=------------------------------------------------------------------------------=
   JOB DONE.
=------------------------------------------------------------------------------=
Warning: ieee_invalid is signaling
Warning: ieee_divide_by_zero is signaling
Warning: ieee_inexact is signaling
FORTRAN STOP
