--------------------------------------------------------------------------
WARNING: Open MPI tried to bind a process but failed.  This is a
warning only; your job will continue, though performance may
be degraded.

  Local host:        3253031b5b37
  Application name:  /root/qe-7.3.1/bin/pw.x
  Error message:     failed to bind memory
  Location:          ../../../../../orte/mca/rtc/hwloc/rtc_hwloc.c:447

--------------------------------------------------------------------------

     Program PWSCF v.7.3.1 starts on  6May2026 at 12:50:27 

     This program is part of the open-source Quantum ESPRESSO suite
     for quantum simulation of materials; please cite
         "P. Giannozzi et al., J. Phys.:Condens. Matter 21 395502 (2009);
         "P. Giannozzi et al., J. Phys.:Condens. Matter 29 465901 (2017);
         "P. Giannozzi et al., J. Chem. Phys. 152 154105 (2020);
          URL http://www.quantum-espresso.org", 
     in publications or presentations arising from this work. More details at
     http://www.quantum-espresso.org/quote

     Parallel version (MPI & OpenMP), running on       8 processor cores
     Number of MPI processes:                 1
     Threads/MPI process:                     8

     MPI processes distributed on     1 nodes
     84046 MiB available memory on the printing compute node when the environment starts
 
     Reading input from cand026_A_NbSe2_Sn.in

     Current dimensions of program PWSCF are:
     Max number of different atomic species (ntypx) = 10
     Max number of k-points (npk) =  40000
     Max angular momentum in pseudopotentials (lmaxx) =  4
     file Nb.UPF: wavefunction(s)  4S 4P 4D renormalized
     file Sn.UPF: wavefunction(s)  5S 4D renormalized
 
     Subspace diagonalization in iterative solution of the eigenvalue problem:
     a serial algorithm will be used

 
     G-vector sticks info
     --------------------
     sticks:   dense  smooth     PW     G-vecs:    dense   smooth      PW
     Sum        4807    3217    805               474203   258301   32365
 
     Using Slab Decomposition
 


     bravais-lattice index     =            0
     lattice parameter (alat)  =      19.6807  a.u.
     unit-cell volume          =   11635.2704 (a.u.)^3
     number of atoms/cell      =           28
     number of atomic types    =            3
     number of electrons       =       239.00
     number of Kohn-Sham states=          144
     kinetic-energy cutoff     =      30.0000  Ry
     charge density cutoff     =     180.0000  Ry
     scf convergence threshold =      1.0E-07
     mixing beta               =       0.4000
     number of iterations used =            8  plain     mixing
     Exchange-correlation= PBE
                           (   1   4   3   4   0   0   0)

     GPU acceleration is ACTIVE.  1 visible GPUs per MPI rank


     celldm(1)=  19.680721  celldm(2)=   0.000000  celldm(3)=   0.000000
     celldm(4)=   0.000000  celldm(5)=   0.000000  celldm(6)=   0.000000

     crystal axes: (cart. coord. in units of alat)
               a(1) = (   1.000000   0.000000   0.000000 )  
               a(2) = (  -0.500000   0.866025   0.000000 )  
               a(3) = (   0.000000   0.000000   1.762475 )  

     reciprocal axes: (cart. coord. in units 2 pi/alat)
               b(1) = (  1.000000  0.577350 -0.000000 )  
               b(2) = (  0.000000  1.154701  0.000000 )  
               b(3) = (  0.000000 -0.000000  0.567384 )  


     PseudoPot. # 1 for Nb read from file:
     /root/qe_pseudos/Nb.UPF
     MD5 check sum: dcedcbb129af9a7271e4748e5febedb1
     Pseudo is Projector augmented-wave + core cor, Zval = 13.0
     Generated using &quot;atomic&quot; code by A. Dal Corso  v.6.2.2
     Shape of augmentation charge: PSQ
     Using radial grid of 1227 points,  6 beta functions with: 
                l(1) =   0
                l(2) =   0
                l(3) =   1
                l(4) =   1
                l(5) =   2
                l(6) =   2
     Q(r) pseudized with 0 coefficients 


     PseudoPot. # 2 for Se read from file:
     /root/qe_pseudos/Se.UPF
     MD5 check sum: 8e2a6847b5cb9faee9497ebb573e71ea
     Pseudo is Ultrasoft + core correction, Zval =  6.0
     Generated using &quot;atomic&quot; code by A. Dal Corso  v.6.3
     Using radial grid of 1211 points,  4 beta functions with: 
                l(1) =   0
                l(2) =   0
                l(3) =   1
                l(4) =   1
     Q(r) pseudized with 0 coefficients 


     PseudoPot. # 3 for Sn read from file:
     /root/qe_pseudos/Sn.UPF
     MD5 check sum: 72e22d5a9e1ec4fde6a02e1f963898e9
     Pseudo is Ultrasoft + core correction, Zval = 14.0
     Generated using &quot;atomic&quot; code by A. Dal Corso  v.6.3
     Using radial grid of 1243 points,  6 beta functions with: 
                l(1) =   0
                l(2) =   0
                l(3) =   1
                l(4) =   1
                l(5) =   2
                l(6) =   2
     Q(r) pseudized with 0 coefficients 


     atomic species   valence    mass     pseudopotential
     Nb               13.00    92.90640     Nb( 1.00)
     Se                6.00    78.97100     Se( 1.00)
     Sn               14.00   118.71000     Sn( 1.00)

     No symmetry found



   Cartesian axes

     site n.     atom                  positions (alat units)
         1        Nb     tau(   1) = (  -0.0100598  -0.0057972   0.8832784  )
         2        Nb     tau(   2) = (   0.3322138   0.5786193   0.8853029  )
         3        Nb     tau(   3) = (   0.5005714   0.2890029   0.8818969  )
         4        Nb     tau(   4) = (  -0.1668397   0.2886895   0.8821470  )
         5        Nb     tau(   5) = (   0.6671375  -0.0016346   0.8852446  )
         6        Nb     tau(   6) = (   0.0007191   0.5777728   0.8839257  )
         7        Nb     tau(   7) = (  -0.3334298   0.5771711   0.8821551  )
         8        Nb     tau(   8) = (   0.1669253   0.2986312   0.8842215  )
         9        Nb     tau(   9) = (   0.3419961  -0.0046593   0.8842298  )
        10        Se     tau(  10) = (   0.5017303   0.0980713   1.0443053  )
        11        Se     tau(  11) = (   0.5006235   0.6714653   1.0445070  )
        12        Se     tau(  12) = (   0.1650934   0.0954045   1.0296128  )
        13        Se     tau(  13) = (   0.6671187   0.3851681   0.7221278  )
        14        Se     tau(  14) = (   0.6669444   0.3850267   1.0410323  )
        15        Se     tau(  15) = (   0.1662516   0.0960097   0.7344419  )
        16        Se     tau(  16) = (   0.8313760   0.0962078   0.7218710  )
        17        Se     tau(  17) = (   0.8317615   0.0978141   1.0444501  )
        18        Se     tau(  18) = (  -0.0024202   0.3859430   1.0443859  )
        19        Se     tau(  19) = (   0.1670637   0.6737415   0.7224505  )
        20        Se     tau(  20) = (   0.1664372   0.6733920   1.0441248  )
        21        Se     tau(  21) = (  -0.0004451   0.3852205   0.7219730  )
        22        Se     tau(  22) = (   0.3337470   0.3859675   0.7223782  )
        23        Se     tau(  23) = (   0.4990363   0.6719646   0.7219608  )
        24        Se     tau(  24) = (  -0.1670346   0.6710096   1.0442649  )
        25        Se     tau(  25) = (   0.5010114   0.0959709   0.7223803  )
        26        Se     tau(  26) = (  -0.1666487   0.6730509   0.7220223  )
        27        Se     tau(  27) = (   0.3358342   0.3855064   1.0443388  )
        28        Sn     tau(  28) = (   0.1699525   0.0977746   1.2498258  )

     number of k points=     1  Methfessel-Paxton smearing, width (Ry)=  0.0100
                       cart. coord. in units 2pi/alat
        k(    1) = (   0.0000000   0.0000000   0.0000000), wk =   2.0000000

     Dense  grid:   474203 G-vectors     FFT dimensions: (  90,  90, 150)

     Smooth grid:   258301 G-vectors     FFT dimensions: (  72,  72, 125)

     Estimated max dynamical RAM per process >       2.21 GB

     Check: negative core charge=   -0.000002

     Initial potential from superposition of free atoms

     starting charge     238.9855, renormalised to     239.0000

     negative rho (up, down):  1.284E-02 0.000E+00
     Starting wfcs are  198 randomized atomic wfcs
     Checking if some PAW data can be deallocated... 

     total cpu time spent up to now is       12.6 secs

     Self-consistent Calculation

     iteration #  1     ecut=    30.00 Ry     beta= 0.40
     Davidson diagonalization with overlap
     ethr =  1.00E-02,  avg # of iterations =  2.0

     Threshold (ethr) on eigenvalues was too large:
     Diagonalizing with lowered threshold

     Davidson diagonalization with overlap
     ethr =  7.17E-04,  avg # of iterations =  2.0

     negative rho (up, down):  1.476E-02 0.000E+00

     total cpu time spent up to now is       17.6 secs

     total energy              =   -3546.36114243 Ry
     estimated scf accuracy    <       1.87858487 Ry

     iteration #  2     ecut=    30.00 Ry     beta= 0.40
     Davidson diagonalization with overlap
     ethr =  7.86E-04,  avg # of iterations =  5.0

     negative rho (up, down):  1.580E-02 0.000E+00

     total cpu time spent up to now is       22.2 secs

     total energy              =   -3545.89337807 Ry
     estimated scf accuracy    <       8.68853089 Ry

     iteration #  3     ecut=    30.00 Ry     beta= 0.40
     Davidson diagonalization with overlap
     ethr =  7.86E-04,  avg # of iterations =  5.0
     Minimization algorithm failed to find Fermi energy: reverting to bisection
     Possible cause: smearing is larger than the electronic band-gap.

     negative rho (up, down):  1.646E-02 0.000E+00

     total cpu time spent up to now is       27.0 secs

     total energy              =   -3546.83548353 Ry
     estimated scf accuracy    <       0.84725443 Ry

     iteration #  4     ecut=    30.00 Ry     beta= 0.40
     Davidson diagonalization with overlap
     ethr =  3.54E-04,  avg # of iterations =  2.0

     negative rho (up, down):  1.695E-02 0.000E+00

     total cpu time spent up to now is       31.5 secs

     total energy              =   -3546.85033593 Ry
     estimated scf accuracy    <       0.56894453 Ry

     iteration #  5     ecut=    30.00 Ry     beta= 0.40
     Davidson diagonalization with overlap
     ethr =  2.38E-04,  avg # of iterations =  2.0

     negative rho (up, down):  1.725E-02 0.000E+00

     total cpu time spent up to now is       36.1 secs

     total energy              =   -3546.88882664 Ry
     estimated scf accuracy    <       0.19068364 Ry

     iteration #  6     ecut=    30.00 Ry     beta= 0.40
     Davidson diagonalization with overlap
     ethr =  7.98E-05,  avg # of iterations =  2.0

     negative rho (up, down):  1.746E-02 0.000E+00

     total cpu time spent up to now is       40.7 secs

     total energy              =   -3546.89522722 Ry
     estimated scf accuracy    <       0.04784396 Ry

     iteration #  7     ecut=    30.00 Ry     beta= 0.40
     Davidson diagonalization with overlap
     ethr =  2.00E-05,  avg # of iterations =  5.0

     negative rho (up, down):  1.766E-02 0.000E+00

     total cpu time spent up to now is       45.4 secs

     total energy              =   -3546.89559242 Ry
     estimated scf accuracy    <       0.04830669 Ry

     iteration #  8     ecut=    30.00 Ry     beta= 0.40
     Davidson diagonalization with overlap
     ethr =  2.00E-05,  avg # of iterations =  2.0

     negative rho (up, down):  1.777E-02 0.000E+00

     total cpu time spent up to now is       50.0 secs

     total energy              =   -3546.89999316 Ry
     estimated scf accuracy    <       0.01542134 Ry

     iteration #  9     ecut=    30.00 Ry     beta= 0.40
     Davidson diagonalization with overlap
     ethr =  6.45E-06,  avg # of iterations =  8.0

     negative rho (up, down):  1.783E-02 0.000E+00

     total cpu time spent up to now is       54.8 secs

     total energy              =   -3546.89993900 Ry
     estimated scf accuracy    <       0.01621073 Ry

     iteration # 10     ecut=    30.00 Ry     beta= 0.40
     Davidson diagonalization with overlap
     ethr =  6.45E-06,  avg # of iterations =  1.0

     negative rho (up, down):  1.784E-02 0.000E+00

     total cpu time spent up to now is       59.3 secs

     total energy              =   -3546.89975988 Ry
     estimated scf accuracy    <       0.00580423 Ry

     iteration # 11     ecut=    30.00 Ry     beta= 0.40
     Davidson diagonalization with overlap
     ethr =  2.43E-06,  avg # of iterations =  8.0

     negative rho (up, down):  1.785E-02 0.000E+00

     total cpu time spent up to now is       64.0 secs

     total energy              =   -3546.90013366 Ry
     estimated scf accuracy    <       0.00028032 Ry

     iteration # 12     ecut=    30.00 Ry     beta= 0.40
     Davidson diagonalization with overlap
     ethr =  1.17E-07,  avg # of iterations =  5.0

     negative rho (up, down):  1.786E-02 0.000E+00

     total cpu time spent up to now is       68.7 secs

     total energy              =   -3546.90016399 Ry
     estimated scf accuracy    <       0.00103678 Ry

     iteration # 13     ecut=    30.00 Ry     beta= 0.40
     Davidson diagonalization with overlap
     ethr =  1.17E-07,  avg # of iterations =  2.0

     negative rho (up, down):  1.786E-02 0.000E+00

     total cpu time spent up to now is       73.2 secs

     total energy              =   -3546.90023048 Ry
     estimated scf accuracy    <       0.00013526 Ry

     iteration # 14     ecut=    30.00 Ry     beta= 0.40
     Davidson diagonalization with overlap
     ethr =  5.66E-08,  avg # of iterations =  2.0

     negative rho (up, down):  1.786E-02 0.000E+00

     total cpu time spent up to now is       77.8 secs

     total energy              =   -3546.90024074 Ry
     estimated scf accuracy    <       0.00001761 Ry

     iteration # 15     ecut=    30.00 Ry     beta= 0.40
     Davidson diagonalization with overlap
     ethr =  7.37E-09,  avg # of iterations =  5.0

     negative rho (up, down):  1.787E-02 0.000E+00

     total cpu time spent up to now is       82.5 secs

     total energy              =   -3546.90024457 Ry
     estimated scf accuracy    <       0.00001595 Ry

     iteration # 16     ecut=    30.00 Ry     beta= 0.40
     Davidson diagonalization with overlap
     ethr =  6.67E-09,  avg # of iterations =  2.0

     negative rho (up, down):  1.787E-02 0.000E+00

     total cpu time spent up to now is       87.1 secs

     total energy              =   -3546.90024431 Ry
     estimated scf accuracy    <       0.00001699 Ry

     iteration # 17     ecut=    30.00 Ry     beta= 0.40
     Davidson diagonalization with overlap
     ethr =  6.67E-09,  avg # of iterations =  1.0

     negative rho (up, down):  1.787E-02 0.000E+00

     total cpu time spent up to now is       91.6 secs

     total energy              =   -3546.90024557 Ry
     estimated scf accuracy    <       0.00000119 Ry

     iteration # 18     ecut=    30.00 Ry     beta= 0.40
     Davidson diagonalization with overlap
     ethr =  4.99E-10,  avg # of iterations =  4.0

     negative rho (up, down):  1.787E-02 0.000E+00

     total cpu time spent up to now is       96.2 secs

     total energy              =   -3546.90024567 Ry
     estimated scf accuracy    <       0.00000104 Ry

     iteration # 19     ecut=    30.00 Ry     beta= 0.40
     Davidson diagonalization with overlap
     ethr =  4.34E-10,  avg # of iterations =  2.0

     negative rho (up, down):  1.787E-02 0.000E+00

     total cpu time spent up to now is      100.8 secs

     total energy              =   -3546.90024576 Ry
     estimated scf accuracy    <       0.00000027 Ry

     iteration # 20     ecut=    30.00 Ry     beta= 0.40
     Davidson diagonalization with overlap
     ethr =  1.11E-10,  avg # of iterations =  3.0

     negative rho (up, down):  1.787E-02 0.000E+00

     total cpu time spent up to now is      105.4 secs

     total energy              =   -3546.90024577 Ry
     estimated scf accuracy    <       0.00000027 Ry

     iteration # 21     ecut=    30.00 Ry     beta= 0.40
     Davidson diagonalization with overlap
     ethr =  1.11E-10,  avg # of iterations =  2.0

     negative rho (up, down):  1.787E-02 0.000E+00

     total cpu time spent up to now is      110.1 secs

     total energy              =   -3546.90024577 Ry
     estimated scf accuracy    <       0.00000020 Ry

     iteration # 22     ecut=    30.00 Ry     beta= 0.40
     Davidson diagonalization with overlap
     ethr =  8.46E-11,  avg # of iterations =  1.0

     negative rho (up, down):  1.787E-02 0.000E+00

     total cpu time spent up to now is      114.6 secs

     End of self-consistent calculation

          k = 0.0000 0.0000 0.0000 ( 32365 PWs)   bands (ev):

   -54.8904 -54.8886 -54.8759 -54.7763 -54.7623 -54.7572 -54.7470 -54.7394
   -54.7387 -31.0537 -31.0330 -31.0318 -31.0222 -31.0190 -31.0112 -30.9429
   -30.9411 -30.9338 -30.9275 -30.9167 -30.9020 -30.8996 -30.8582 -30.8389
   -30.8324 -30.8252 -30.8209 -30.8149 -30.8038 -30.7916 -30.7898 -30.7845
   -30.7842 -30.7685 -30.7510 -30.7489 -22.1636 -22.1208 -22.1207 -22.0461
   -22.0456 -14.3068 -13.2995 -12.5038 -12.5035 -12.5002 -12.4968 -12.4710
   -12.4565 -12.1697 -12.0706 -12.0610 -12.0197 -12.0192 -12.0158 -11.9363
   -11.9361 -11.7440 -11.7298  -7.7194  -4.7787  -4.7755  -4.6589  -4.3052
    -4.2440  -4.2423  -4.2395  -4.2314  -4.2130  -3.9229  -3.9206  -3.7302
    -3.5440  -3.5430  -3.4689  -3.4634  -3.3748  -3.3738  -3.3609  -3.3353
    -3.3337  -3.2990  -3.2580  -3.2514  -3.2147  -3.0659  -2.9745  -2.4547
    -2.4509  -2.0724  -2.0388  -2.0259  -1.9783  -1.9734  -1.9071  -1.7302
    -1.7268  -1.6115  -1.5785  -1.3709  -1.3219  -1.3196  -1.2680  -1.1858
    -1.1817  -1.1065  -1.0767  -1.0623  -0.9525  -0.7992  -0.7927  -0.7454
    -0.7223  -0.7197  -0.2837  -0.2810  -0.1878  -0.1349  -0.1330  -0.0919
     0.4339   0.4455   0.7639   0.8129   0.8203   2.0581   2.0593   2.4389
     2.5384   2.6546   2.6585   2.7708   2.7846   2.7857   2.7862   2.7898
     2.7987   2.9077   2.9310   3.0579   3.0631   3.0841   3.3171   3.3177

     the Fermi energy is    -0.0628 ev

!    total energy              =   -3546.90024577 Ry
     estimated scf accuracy    <       0.00000003 Ry
     smearing contrib. (-TS)   =      -0.00180716 Ry
     internal energy E=F+TS    =   -3546.89843861 Ry

     The total energy is F=E-TS. E is the sum of the following terms:
     one-electron contribution =   -6834.05984258 Ry
     hartree contribution      =    3445.07468294 Ry
     xc contribution           =    -330.98168025 Ry
     ewald contribution        =    2141.92825058 Ry
     one-center paw contrib.   =   -1968.85984930 Ry

     convergence has been achieved in  22 iterations

     negative rho (up, down):  1.787E-02 0.000E+00

     Forces acting on atoms (cartesian axes, Ry/au):

     atom    1 type  1   force =     0.00090966    0.00064873   -0.00805809
     atom    2 type  1   force =    -0.00373688   -0.00173392    0.00227728
     atom    3 type  1   force =    -0.00056483   -0.00030809   -0.00306425
     atom    4 type  1   force =     0.00035717   -0.00045137   -0.00342714
     atom    5 type  1   force =    -0.00311494   -0.00242323    0.00233678
     atom    6 type  1   force =     0.00542433    0.00306773    0.00436564
     atom    7 type  1   force =    -0.00021759    0.00061400   -0.00337118
     atom    8 type  1   force =    -0.00168672    0.00257725   -0.00808677
     atom    9 type  1   force =     0.00133669   -0.00304364   -0.00811061
     atom   10 type  2   force =     0.00032803    0.00108590    0.00349586
     atom   11 type  2   force =     0.00015954   -0.00067404    0.00335274
     atom   12 type  2   force =    -0.00256034   -0.00111388   -0.12160777
     atom   13 type  2   force =    -0.00080206   -0.00051315   -0.00107592
     atom   14 type  2   force =    -0.00049655   -0.00023616    0.00486428
     atom   15 type  2   force =     0.00001653    0.00016926   -0.01728952
     atom   16 type  2   force =     0.00202881    0.00193743   -0.00030959
     atom   17 type  2   force =    -0.00052056    0.00041832    0.00336237
     atom   18 type  2   force =     0.00033257   -0.00094572    0.00179376
     atom   19 type  2   force =    -0.00150742   -0.00072856    0.00599518
     atom   20 type  2   force =    -0.00105169   -0.00040903    0.00278945
     atom   21 type  2   force =    -0.00060054   -0.00159853    0.00020658
     atom   22 type  2   force =     0.00096619   -0.00195046    0.00040167
     atom   23 type  2   force =     0.00265481    0.00064983   -0.00064594
     atom   24 type  2   force =    -0.00059113    0.00067316    0.00226206
     atom   25 type  2   force =    -0.00100797    0.00206104    0.00025509
     atom   26 type  2   force =    -0.00168271    0.00032126    0.00006773
     atom   27 type  2   force =     0.00105721   -0.00032000    0.00334889
     atom   28 type  3   force =     0.00457036    0.00222589    0.13387144

     Total force =     0.183196     Total SCF correction =     0.000501


     Computing stress (Cartesian axis) and pressure


     negative rho (up, down):  1.787E-02 0.000E+00
          total   stress  (Ry/bohr**3)                   (kbar)     P=      -61.10
  -0.00042310   0.00000058   0.00000193          -62.24        0.08        0.28
   0.00000058  -0.00042380   0.00000088            0.08      -62.34        0.13
   0.00000193   0.00000088  -0.00039915            0.28        0.13      -58.72


     Writing all to output data dir /root/qe_scratch/cand026_A_NbSe2_Sn.save/ :
     XML data file, charge density, pseudopotentials, collected wavefunctions
 
     init_run     :      9.00s CPU     11.74s WALL (       1 calls)
     electrons    :     84.65s CPU    102.06s WALL (       1 calls)
     forces       :      0.85s CPU      0.89s WALL (       1 calls)
     stress       :      0.65s CPU      0.67s WALL (       1 calls)

     Called by init_run:
     wfcinit      :      0.26s CPU      0.42s WALL (       1 calls)
     potinit      :      7.82s CPU     10.15s WALL (       1 calls)
     hinit0       :      0.51s CPU      0.60s WALL (       1 calls)

     Called by electrons:
     c_bands      :      5.87s CPU      5.92s WALL (      23 calls)
     sum_band     :      1.79s CPU      1.81s WALL (      23 calls)
     v_of_rho     :      1.74s CPU      2.34s WALL (      23 calls)
     newd         :      5.34s CPU      5.43s WALL (      23 calls)
                                        5.43s GPU  (      23 calls)
     PAW_pot      :     69.50s CPU     86.32s WALL (      23 calls)
     mix_rho      :      0.85s CPU      0.91s WALL (      23 calls)

     Called by c_bands:
     init_us_2    :      0.05s CPU      0.05s WALL (      47 calls)
     cegterg      :      5.73s CPU      5.77s WALL (      23 calls)

     Called by *egterg:
     cdiaghg      :      0.86s CPU      0.89s WALL (      95 calls)
                                        0.89s GPU  (      95 calls)
     h_psi        :      2.52s CPU      2.68s WALL (      97 calls)
                                        2.68s GPU  (      97 calls)
     s_psi        :      0.10s CPU      0.10s WALL (      97 calls)
     g_psi        :      0.00s CPU      0.01s WALL (      73 calls)
                                        0.01s GPU  (      73 calls)

     Called by h_psi:
     h_psi:calbec :      0.12s CPU      0.76s WALL (      97 calls)
                                        0.76s GPU  (      97 calls)
     vloc_psi     :      1.33s CPU      1.36s WALL (      97 calls)
                                        1.36s GPU  (      97 calls)
     add_vuspsi   :      0.10s CPU      0.55s WALL (      97 calls)
                                        0.55s GPU  (      97 calls)

     General routines
     calbec       :      0.13s CPU      0.26s WALL (     125 calls)
     fft          :      4.72s CPU      6.24s WALL (     323 calls)
                                        0.05s GPU  (     300 calls)
     ffts         :      2.19s CPU      2.79s WALL (      46 calls)
                                        0.00s GPU  (      23 calls)
     fftw         :      0.03s CPU      1.37s WALL (    1215 calls)
                                        1.36s GPU  (    1215 calls)
     interpolate  :      7.02s CPU      9.11s WALL (      23 calls)
 
     Parallel routines
 
     PWSCF        :   1m36.09s CPU   1m56.44s WALL

 
   This run was terminated on:  12:52:23   6May2026            

=------------------------------------------------------------------------------=
   JOB DONE.
=------------------------------------------------------------------------------=
Warning: ieee_invalid is signaling
Warning: ieee_divide_by_zero is signaling
Warning: ieee_inexact is signaling
FORTRAN STOP
