--------------------------------------------------------------------------
WARNING: Open MPI tried to bind a process but failed.  This is a
warning only; your job will continue, though performance may
be degraded.

  Local host:        3253031b5b37
  Application name:  /root/qe-7.3.1/bin/pw.x
  Error message:     failed to bind memory
  Location:          ../../../../../orte/mca/rtc/hwloc/rtc_hwloc.c:447

--------------------------------------------------------------------------

     Program PWSCF v.7.3.1 starts on  7May2026 at  2:37: 9 

     This program is part of the open-source Quantum ESPRESSO suite
     for quantum simulation of materials; please cite
         "P. Giannozzi et al., J. Phys.:Condens. Matter 21 395502 (2009);
         "P. Giannozzi et al., J. Phys.:Condens. Matter 29 465901 (2017);
         "P. Giannozzi et al., J. Chem. Phys. 152 154105 (2020);
          URL http://www.quantum-espresso.org", 
     in publications or presentations arising from this work. More details at
     http://www.quantum-espresso.org/quote

     Parallel version (MPI & OpenMP), running on       8 processor cores
     Number of MPI processes:                 1
     Threads/MPI process:                     8

     MPI processes distributed on     1 nodes
     91155 MiB available memory on the printing compute node when the environment starts
 
     Reading input from cand244_A_Pd2Se4_Na.in

     Current dimensions of program PWSCF are:
     Max number of different atomic species (ntypx) = 10
     Max number of k-points (npk) =  40000
     Max angular momentum in pseudopotentials (lmaxx) =  4
     file Na.UPF: wavefunction(s)  2P renormalized
     file Pd.UPF: wavefunction(s)  5S 4D renormalized
 
     Subspace diagonalization in iterative solution of the eigenvalue problem:
     a serial algorithm will be used

 
     G-vector sticks info
     --------------------
     sticks:   dense  smooth     PW     G-vecs:    dense   smooth      PW
     Sum        6971    4641   1163               616503   335437   41925
 
     Using Slab Decomposition
 


     bravais-lattice index     =            0
     lattice parameter (alat)  =      21.7336  a.u.
     unit-cell volume          =   15116.8605 (a.u.)^3
     number of atoms/cell      =           25
     number of atomic types    =            3
     number of electrons       =       185.00
     number of Kohn-Sham states=          112
     kinetic-energy cutoff     =      30.0000  Ry
     charge density cutoff     =     180.0000  Ry
     scf convergence threshold =      1.0E-07
     mixing beta               =       0.4000
     number of iterations used =            8  plain     mixing
     Exchange-correlation= PBE
                           (   1   4   3   4   0   0   0)

     GPU acceleration is ACTIVE.  1 visible GPUs per MPI rank


     celldm(1)=  21.733591  celldm(2)=   0.000000  celldm(3)=   0.000000
     celldm(4)=   0.000000  celldm(5)=   0.000000  celldm(6)=   0.000000

     crystal axes: (cart. coord. in units of alat)
               a(1) = (   1.000000   0.000000   0.000000 )  
               a(2) = (   0.000000   1.029471   0.000000 )  
               a(3) = (   0.000000   0.000000   1.430385 )  

     reciprocal axes: (cart. coord. in units 2 pi/alat)
               b(1) = (  1.000000  0.000000  0.000000 )  
               b(2) = (  0.000000  0.971372  0.000000 )  
               b(3) = (  0.000000  0.000000  0.699113 )  


     PseudoPot. # 1 for Na read from file:
     /root/qe_pseudos/Na.UPF
     MD5 check sum: 05b4deb74e3932c23ab016979dc8b5d4
     Pseudo is Projector augmented-wave + core cor, Zval =  9.0
     Generated using &quot;atomic&quot; code by A. Dal Corso  v.6.3
     Shape of augmentation charge: PSQ
     Using radial grid of 1121 points,  4 beta functions with: 
                l(1) =   0
                l(2) =   0
                l(3) =   1
                l(4) =   1
     Q(r) pseudized with 0 coefficients 


     PseudoPot. # 2 for Pd read from file:
     /root/qe_pseudos/Pd.UPF
     MD5 check sum: a1ee5d3c3f0c030a735988cf39041146
     Pseudo is Projector augmented-wave + core cor, Zval = 10.0
     Generated using &quot;atomic&quot; code by A. Dal Corso  v.6.3
     Shape of augmentation charge: PSQ
     Using radial grid of 1235 points,  6 beta functions with: 
                l(1) =   0
                l(2) =   0
                l(3) =   1
                l(4) =   1
                l(5) =   2
                l(6) =   2
     Q(r) pseudized with 0 coefficients 


     PseudoPot. # 3 for Se read from file:
     /root/qe_pseudos/Se.UPF
     MD5 check sum: 8e2a6847b5cb9faee9497ebb573e71ea
     Pseudo is Ultrasoft + core correction, Zval =  6.0
     Generated using &quot;atomic&quot; code by A. Dal Corso  v.6.3
     Using radial grid of 1211 points,  4 beta functions with: 
                l(1) =   0
                l(2) =   0
                l(3) =   1
                l(4) =   1
     Q(r) pseudized with 0 coefficients 


     atomic species   valence    mass     pseudopotential
     Na                9.00    22.98980     Na( 1.00)
     Pd               10.00   106.42000     Pd( 1.00)
     Se                6.00    78.97100     Se( 1.00)

     No symmetry found



   Cartesian axes

     site n.     atom                  positions (alat units)
         1        Pd     tau(   1) = (   0.2484615   1.0279893   0.7200311  )
         2        Pd     tau(   2) = (   0.5003338   0.7718333   0.7154025  )
         3        Pd     tau(   3) = (   0.7498827   0.5146490   0.7152116  )
         4        Pd     tau(   4) = (   0.5013392   0.2576406   0.7196320  )
         5        Pd     tau(   5) = (   1.0003098   0.7724478   0.7150957  )
         6        Pd     tau(   6) = (   0.2491264   0.5154440   0.7144858  )
         7        Pd     tau(   7) = (   0.7496193   1.0294147   0.7153475  )
         8        Pd     tau(   8) = (   0.9987406   0.2585334   0.7145630  )
         9        Se     tau(   9) = (   0.9448965   0.9685577   0.7815897  )
        10        Se     tau(  10) = (   0.8048950   0.7103862   0.7820197  )
        11        Se     tau(  11) = (   0.5543739   0.5757293   0.6488772  )
        12        Se     tau(  12) = (   0.0549723   0.0626383   0.6489357  )
        13        Se     tau(  13) = (   0.6948323   0.3189690   0.6482211  )
        14        Se     tau(  14) = (   0.9451287   0.4539905   0.7818877  )
        15        Se     tau(  15) = (   0.4439470   0.4539776   0.7837275  )
        16        Se     tau(  16) = (   0.5540043   0.0613955   0.6494779  )
        17        Se     tau(  17) = (   0.3119449   0.1889663   0.7921914  )
        18        Se     tau(  18) = (   0.6955749   0.8335496   0.6482832  )
        19        Se     tau(  19) = (   0.1956590   0.8340087   0.6480232  )
        20        Se     tau(  20) = (   0.4457251   0.9663943   0.7833186  )
        21        Se     tau(  21) = (   0.3043922   0.7106793   0.7815240  )
        22        Se     tau(  22) = (   0.0543077   0.5768924   0.6477451  )
        23        Se     tau(  23) = (   0.1944398   0.3193564   0.6541549  )
        24        Se     tau(  24) = (   0.8042049   0.1960126   0.7816288  )
        25        Na     tau(  25) = (   0.3042380   0.1993453   0.9878299  )

     number of k points=     1  Methfessel-Paxton smearing, width (Ry)=  0.0100
                       cart. coord. in units 2pi/alat
        k(    1) = (   0.0000000   0.0000000   0.0000000), wk =   2.0000000

     Dense  grid:   616503 G-vectors     FFT dimensions: (  96,  96, 135)

     Smooth grid:   335437 G-vectors     FFT dimensions: (  75,  80, 120)

     Estimated max dynamical RAM per process >       2.75 GB

     Initial potential from superposition of free atoms

     starting charge     184.9879, renormalised to     185.0000

     negative rho (up, down):  2.915E-02 0.000E+00
     Starting wfcs are  141 randomized atomic wfcs
     Checking if some PAW data can be deallocated... 

     total cpu time spent up to now is       11.4 secs

     Self-consistent Calculation

     iteration #  1     ecut=    30.00 Ry     beta= 0.40
     Davidson diagonalization with overlap
     ethr =  1.00E-02,  avg # of iterations =  3.0

     Threshold (ethr) on eigenvalues was too large:
     Diagonalizing with lowered threshold

     Davidson diagonalization with overlap
     ethr =  3.45E-04,  avg # of iterations =  2.0

     negative rho (up, down):  3.534E-02 0.000E+00

     total cpu time spent up to now is       16.2 secs

     total energy              =   -3090.87047196 Ry
     estimated scf accuracy    <       0.73086636 Ry

     iteration #  2     ecut=    30.00 Ry     beta= 0.40
     Davidson diagonalization with overlap
     ethr =  3.95E-04,  avg # of iterations =  2.0

     negative rho (up, down):  4.127E-02 0.000E+00

     total cpu time spent up to now is       20.6 secs

     total energy              =   -3090.88399912 Ry
     estimated scf accuracy    <       0.56714523 Ry

     iteration #  3     ecut=    30.00 Ry     beta= 0.40
     Davidson diagonalization with overlap
     ethr =  3.07E-04,  avg # of iterations =  3.0

     negative rho (up, down):  4.762E-02 0.000E+00

     total cpu time spent up to now is       25.0 secs

     total energy              =   -3090.93605839 Ry
     estimated scf accuracy    <       0.22127852 Ry

     iteration #  4     ecut=    30.00 Ry     beta= 0.40
     Davidson diagonalization with overlap
     ethr =  1.20E-04,  avg # of iterations = 10.0

     negative rho (up, down):  5.262E-02 0.000E+00

     total cpu time spent up to now is       29.7 secs

     total energy              =   -3090.94347555 Ry
     estimated scf accuracy    <       0.15807360 Ry

     iteration #  5     ecut=    30.00 Ry     beta= 0.40
     Davidson diagonalization with overlap
     ethr =  8.54E-05,  avg # of iterations =  2.0

     negative rho (up, down):  5.474E-02 0.000E+00

     total cpu time spent up to now is       34.0 secs

     total energy              =   -3090.96228776 Ry
     estimated scf accuracy    <       0.02253885 Ry

     iteration #  6     ecut=    30.00 Ry     beta= 0.40
     Davidson diagonalization with overlap
     ethr =  1.22E-05,  avg # of iterations =  9.0

     negative rho (up, down):  5.589E-02 0.000E+00

     total cpu time spent up to now is       38.8 secs

     total energy              =   -3090.96379930 Ry
     estimated scf accuracy    <       0.00437160 Ry

     iteration #  7     ecut=    30.00 Ry     beta= 0.40
     Davidson diagonalization with overlap
     ethr =  2.36E-06,  avg # of iterations =  6.0

     negative rho (up, down):  5.659E-02 0.000E+00

     total cpu time spent up to now is       43.4 secs

     total energy              =   -3090.96430646 Ry
     estimated scf accuracy    <       0.00220804 Ry

     iteration #  8     ecut=    30.00 Ry     beta= 0.40
     Davidson diagonalization with overlap
     ethr =  1.19E-06,  avg # of iterations =  2.0
     Minimization algorithm failed to find Fermi energy: reverting to bisection
     Possible cause: smearing is larger than the electronic band-gap.

     negative rho (up, down):  5.710E-02 0.000E+00

     total cpu time spent up to now is       47.8 secs

     total energy              =   -3090.96448958 Ry
     estimated scf accuracy    <       0.00081440 Ry

     iteration #  9     ecut=    30.00 Ry     beta= 0.40
     Davidson diagonalization with overlap
     ethr =  4.40E-07,  avg # of iterations =  2.0
     Minimization algorithm failed to find Fermi energy: reverting to bisection
     Possible cause: smearing is larger than the electronic band-gap.

     negative rho (up, down):  5.740E-02 0.000E+00

     total cpu time spent up to now is       52.2 secs

     total energy              =   -3090.96458408 Ry
     estimated scf accuracy    <       0.00013196 Ry

     iteration # 10     ecut=    30.00 Ry     beta= 0.40
     Davidson diagonalization with overlap
     ethr =  7.13E-08,  avg # of iterations =  2.0
     Minimization algorithm failed to find Fermi energy: reverting to bisection
     Possible cause: smearing is larger than the electronic band-gap.

     negative rho (up, down):  5.758E-02 0.000E+00

     total cpu time spent up to now is       56.7 secs

     total energy              =   -3090.96459746 Ry
     estimated scf accuracy    <       0.00010382 Ry

     iteration # 11     ecut=    30.00 Ry     beta= 0.40
     Davidson diagonalization with overlap
     ethr =  5.61E-08,  avg # of iterations =  1.0
     Minimization algorithm failed to find Fermi energy: reverting to bisection
     Possible cause: smearing is larger than the electronic band-gap.

     negative rho (up, down):  5.768E-02 0.000E+00

     total cpu time spent up to now is       61.0 secs

     total energy              =   -3090.96460750 Ry
     estimated scf accuracy    <       0.00001085 Ry

     iteration # 12     ecut=    30.00 Ry     beta= 0.40
     Davidson diagonalization with overlap
     ethr =  5.86E-09,  avg # of iterations =  4.0
     Minimization algorithm failed to find Fermi energy: reverting to bisection
     Possible cause: smearing is larger than the electronic band-gap.

     negative rho (up, down):  5.773E-02 0.000E+00

     total cpu time spent up to now is       65.5 secs

     total energy              =   -3090.96460849 Ry
     estimated scf accuracy    <       0.00000917 Ry

     iteration # 13     ecut=    30.00 Ry     beta= 0.40
     Davidson diagonalization with overlap
     ethr =  4.96E-09,  avg # of iterations =  2.0
     Minimization algorithm failed to find Fermi energy: reverting to bisection
     Possible cause: smearing is larger than the electronic band-gap.

     negative rho (up, down):  5.777E-02 0.000E+00

     total cpu time spent up to now is       69.9 secs

     total energy              =   -3090.96460955 Ry
     estimated scf accuracy    <       0.00000130 Ry

     iteration # 14     ecut=    30.00 Ry     beta= 0.40
     Davidson diagonalization with overlap
     ethr =  7.05E-10,  avg # of iterations =  2.0
     Minimization algorithm failed to find Fermi energy: reverting to bisection
     Possible cause: smearing is larger than the electronic band-gap.

     negative rho (up, down):  5.779E-02 0.000E+00

     total cpu time spent up to now is       74.4 secs

     total energy              =   -3090.96460973 Ry
     estimated scf accuracy    <       0.00000035 Ry

     iteration # 15     ecut=    30.00 Ry     beta= 0.40
     Davidson diagonalization with overlap
     ethr =  1.91E-10,  avg # of iterations =  4.0
     Minimization algorithm failed to find Fermi energy: reverting to bisection
     Possible cause: smearing is larger than the electronic band-gap.

     negative rho (up, down):  5.781E-02 0.000E+00

     total cpu time spent up to now is       78.9 secs

     total energy              =   -3090.96460976 Ry
     estimated scf accuracy    <       0.00000026 Ry

     iteration # 16     ecut=    30.00 Ry     beta= 0.40
     Davidson diagonalization with overlap
     ethr =  1.38E-10,  avg # of iterations =  2.0
     Minimization algorithm failed to find Fermi energy: reverting to bisection
     Possible cause: smearing is larger than the electronic band-gap.

     negative rho (up, down):  5.783E-02 0.000E+00

     total cpu time spent up to now is       83.3 secs

     End of self-consistent calculation

          k = 0.0000 0.0000 0.0000 ( 41925 PWs)   bands (ev):

   -56.2960 -27.2919 -27.2232 -27.2088 -16.3707 -15.9380 -15.9297 -15.8852
   -15.7913 -15.7513 -15.6266 -15.3284 -13.8756 -13.8480 -13.6653 -13.6083
   -13.5844 -13.5522 -13.5221 -13.2454  -7.4167  -7.2557  -7.2312  -7.1846
    -7.1493  -7.0210  -7.0101  -6.4402  -6.3582  -6.3106  -6.1847  -6.1385
    -6.0976  -6.0390  -5.9392  -5.9187  -5.8975  -5.7882  -5.7043  -5.5061
    -5.4835  -5.4544  -5.3065  -5.2743  -5.1324  -5.1303  -4.8678  -4.7613
    -4.7080  -4.6600  -4.6487  -4.5752  -4.4356  -4.4106  -4.2175  -4.2152
    -4.2029  -4.1405  -4.0671  -3.9603  -3.8309  -3.7969  -3.7661  -3.7464
    -3.7378  -3.6961  -3.5794  -3.5598  -3.4435  -3.3894  -3.2949  -3.2595
    -3.2576  -3.2303  -3.1644  -3.1399  -3.0964  -3.0861  -3.0563  -3.0428
    -3.0258  -2.9880  -2.9559  -2.7736  -2.7413  -2.7137  -2.6488  -2.2917
    -2.2661  -2.1844  -2.1523  -2.1352  -0.6935  -0.6121  -0.5770  -0.5192
    -0.3979  -0.3441  -0.2271  -0.1138  -0.0397   0.1715   0.2020   0.4616
     0.5684   0.5984   0.7342   0.7599   0.9565   1.9451   2.0489   2.1550

     the Fermi energy is    -0.6970 ev

!    total energy              =   -3090.96460976 Ry
     estimated scf accuracy    <       0.00000004 Ry
     smearing contrib. (-TS)   =      -0.00104549 Ry
     internal energy E=F+TS    =   -3090.96356427 Ry

     The total energy is F=E-TS. E is the sum of the following terms:
     one-electron contribution =   -3102.66594242 Ry
     hartree contribution      =    1628.31166204 Ry
     xc contribution           =    -290.13502076 Ry
     ewald contribution        =     816.33270667 Ry
     one-center paw contrib.   =   -2142.80696980 Ry

     convergence has been achieved in  16 iterations

     negative rho (up, down):  5.783E-02 0.000E+00

     Forces acting on atoms (cartesian axes, Ry/au):

     atom    1 type  2   force =     0.00675221   -0.01151331   -0.00132141
     atom    2 type  2   force =    -0.00071407    0.00079532   -0.00073447
     atom    3 type  2   force =    -0.00156806    0.00191497    0.00001743
     atom    4 type  2   force =     0.00828811   -0.00113201   -0.00162955
     atom    5 type  2   force =     0.00064245   -0.00254262    0.00010059
     atom    6 type  2   force =    -0.00353080    0.00587818    0.00342099
     atom    7 type  2   force =    -0.00105123   -0.00056449   -0.00041948
     atom    8 type  2   force =     0.00146643    0.00084217    0.00312630
     atom    9 type  3   force =     0.00090905    0.00523653    0.00250977
     atom   10 type  3   force =    -0.00307491   -0.00236873    0.00504787
     atom   11 type  3   force =     0.00257876   -0.00451864   -0.00186673
     atom   12 type  3   force =    -0.00299390    0.00008593    0.00069471
     atom   13 type  3   force =    -0.00112588    0.00033534   -0.00012711
     atom   14 type  3   force =     0.00095317    0.00114874    0.00202349
     atom   15 type  3   force =     0.00146150   -0.00124695    0.00128709
     atom   16 type  3   force =    -0.00191222   -0.00232897   -0.00058309
     atom   17 type  3   force =     0.00850958   -0.01662502   -0.12489899
     atom   18 type  3   force =     0.00227537   -0.00016974   -0.00540558
     atom   19 type  3   force =     0.00227975    0.00079810   -0.00260696
     atom   20 type  3   force =     0.00019384    0.00681915    0.00807086
     atom   21 type  3   force =    -0.00274067    0.00015661    0.00132505
     atom   22 type  3   force =     0.00181904   -0.00874199   -0.00595718
     atom   23 type  3   force =    -0.01185786    0.02056447   -0.01947833
     atom   24 type  3   force =    -0.00324819    0.00148418    0.00160298
     atom   25 type  1   force =    -0.00431146    0.00569277    0.13580175

     Total force =     0.190160     Total SCF correction =     0.000348


     Computing stress (Cartesian axis) and pressure


     negative rho (up, down):  5.783E-02 0.000E+00
          total   stress  (Ry/bohr**3)                   (kbar)     P=      -10.97
  -0.00010155  -0.00000138  -0.00000042          -14.94       -0.20       -0.06
  -0.00000138  -0.00007870   0.00000157           -0.20      -11.58        0.23
  -0.00000042   0.00000157  -0.00004358           -0.06        0.23       -6.41


     Writing all to output data dir /root/qe_scratch/cand244_A_Pd2Se4_Na.save/ :
     XML data file, charge density, pseudopotentials, collected wavefunctions
 
     init_run     :      8.36s CPU     10.70s WALL (       1 calls)
     electrons    :     60.22s CPU     71.92s WALL (       1 calls)
     forces       :      1.02s CPU      1.06s WALL (       1 calls)
     stress       :      0.54s CPU      0.58s WALL (       1 calls)

     Called by init_run:
     wfcinit      :      0.21s CPU      0.40s WALL (       1 calls)
     potinit      :      7.17s CPU      9.06s WALL (       1 calls)
     hinit0       :      0.46s CPU      0.57s WALL (       1 calls)

     Called by electrons:
     c_bands      :      3.96s CPU      3.97s WALL (      17 calls)
     sum_band     :      1.12s CPU      1.13s WALL (      17 calls)
     v_of_rho     :      1.39s CPU      1.81s WALL (      17 calls)
     newd         :      4.80s CPU      4.91s WALL (      17 calls)
                                        4.91s GPU  (      17 calls)
     PAW_pot      :     49.23s CPU     60.52s WALL (      17 calls)
     mix_rho      :      0.74s CPU      0.79s WALL (      17 calls)

     Called by c_bands:
     init_us_2    :      0.03s CPU      0.04s WALL (      35 calls)
     cegterg      :      3.85s CPU      3.86s WALL (      17 calls)

     Called by *egterg:
     cdiaghg      :      0.52s CPU      0.55s WALL (      74 calls)
                                        0.55s GPU  (      74 calls)
     h_psi        :      1.64s CPU      1.81s WALL (      76 calls)
                                        1.81s GPU  (      76 calls)
     s_psi        :      0.07s CPU      0.07s WALL (      76 calls)
     g_psi        :      0.00s CPU      0.01s WALL (      58 calls)
                                        0.01s GPU  (      58 calls)

     Called by h_psi:
     h_psi:calbec :      0.10s CPU      0.57s WALL (      76 calls)
                                        0.57s GPU  (      76 calls)
     vloc_psi     :      0.85s CPU      0.86s WALL (      76 calls)
                                        0.86s GPU  (      76 calls)
     add_vuspsi   :      0.07s CPU      0.37s WALL (      76 calls)
                                        0.37s GPU  (      76 calls)

     General routines
     calbec       :      0.10s CPU      0.26s WALL (      98 calls)
     fft          :      3.76s CPU      4.88s WALL (     245 calls)
                                        0.04s GPU  (     228 calls)
     ffts         :      2.00s CPU      2.58s WALL (      34 calls)
                                        0.00s GPU  (      17 calls)
     fftw         :      0.02s CPU      0.86s WALL (     715 calls)
                                        0.86s GPU  (     715 calls)
     interpolate  :      5.90s CPU      7.58s WALL (      17 calls)
 
     Parallel routines
 
     PWSCF        :   1m10.92s CPU   1m25.19s WALL

 
   This run was terminated on:   2:38:34   7May2026            

=------------------------------------------------------------------------------=
   JOB DONE.
=------------------------------------------------------------------------------=
Warning: ieee_invalid is signaling
Warning: ieee_divide_by_zero is signaling
Warning: ieee_inexact is signaling
FORTRAN STOP
