--------------------------------------------------------------------------
WARNING: Open MPI tried to bind a process but failed.  This is a
warning only; your job will continue, though performance may
be degraded.

  Local host:        3253031b5b37
  Application name:  /root/qe-7.3.1/bin/pw.x
  Error message:     failed to bind memory
  Location:          ../../../../../orte/mca/rtc/hwloc/rtc_hwloc.c:447

--------------------------------------------------------------------------

     Program PWSCF v.7.3.1 starts on  7May2026 at  2:50:48 

     This program is part of the open-source Quantum ESPRESSO suite
     for quantum simulation of materials; please cite
         "P. Giannozzi et al., J. Phys.:Condens. Matter 21 395502 (2009);
         "P. Giannozzi et al., J. Phys.:Condens. Matter 29 465901 (2017);
         "P. Giannozzi et al., J. Chem. Phys. 152 154105 (2020);
          URL http://www.quantum-espresso.org", 
     in publications or presentations arising from this work. More details at
     http://www.quantum-espresso.org/quote

     Parallel version (MPI & OpenMP), running on       8 processor cores
     Number of MPI processes:                 1
     Threads/MPI process:                     8

     MPI processes distributed on     1 nodes
     90872 MiB available memory on the printing compute node when the environment starts
 
     Reading input from cand248_B_Pd2Se4_Bi.in

     Current dimensions of program PWSCF are:
     Max number of different atomic species (ntypx) = 10
     Max number of k-points (npk) =  40000
     Max angular momentum in pseudopotentials (lmaxx) =  4
     file Bi.UPF: wavefunction(s)  6P 5D renormalized
     file Pd.UPF: wavefunction(s)  5S 4D renormalized
 
     Subspace diagonalization in iterative solution of the eigenvalue problem:
     a serial algorithm will be used

 
     G-vector sticks info
     --------------------
     sticks:   dense  smooth     PW     G-vecs:    dense   smooth      PW
     Sum        6971    4641   1163               616503   335437   41925
 
     Using Slab Decomposition
 


     bravais-lattice index     =            0
     lattice parameter (alat)  =      21.7336  a.u.
     unit-cell volume          =   15116.8605 (a.u.)^3
     number of atoms/cell      =           25
     number of atomic types    =            3
     number of electrons       =       191.00
     number of Kohn-Sham states=          115
     kinetic-energy cutoff     =      30.0000  Ry
     charge density cutoff     =     180.0000  Ry
     scf convergence threshold =      1.0E-07
     mixing beta               =       0.4000
     number of iterations used =            8  plain     mixing
     Exchange-correlation= PBE
                           (   1   4   3   4   0   0   0)

     GPU acceleration is ACTIVE.  1 visible GPUs per MPI rank


     celldm(1)=  21.733591  celldm(2)=   0.000000  celldm(3)=   0.000000
     celldm(4)=   0.000000  celldm(5)=   0.000000  celldm(6)=   0.000000

     crystal axes: (cart. coord. in units of alat)
               a(1) = (   1.000000   0.000000   0.000000 )  
               a(2) = (   0.000000   1.029471   0.000000 )  
               a(3) = (   0.000000   0.000000   1.430385 )  

     reciprocal axes: (cart. coord. in units 2 pi/alat)
               b(1) = (  1.000000  0.000000  0.000000 )  
               b(2) = (  0.000000  0.971372  0.000000 )  
               b(3) = (  0.000000  0.000000  0.699113 )  


     PseudoPot. # 1 for Bi read from file:
     /root/qe_pseudos/Bi.UPF
     MD5 check sum: 266ded784ae3bc462508ed03f0f37963
     Pseudo is Projector augmented-wave + core cor, Zval = 15.0
     Generated using &quot;atomic&quot; code by A. Dal Corso  v.6.2.2
     Shape of augmentation charge: PSQ
     Using radial grid of 1283 points,  6 beta functions with: 
                l(1) =   0
                l(2) =   0
                l(3) =   1
                l(4) =   1
                l(5) =   2
                l(6) =   2
     Q(r) pseudized with 0 coefficients 


     PseudoPot. # 2 for Pd read from file:
     /root/qe_pseudos/Pd.UPF
     MD5 check sum: a1ee5d3c3f0c030a735988cf39041146
     Pseudo is Projector augmented-wave + core cor, Zval = 10.0
     Generated using &quot;atomic&quot; code by A. Dal Corso  v.6.3
     Shape of augmentation charge: PSQ
     Using radial grid of 1235 points,  6 beta functions with: 
                l(1) =   0
                l(2) =   0
                l(3) =   1
                l(4) =   1
                l(5) =   2
                l(6) =   2
     Q(r) pseudized with 0 coefficients 


     PseudoPot. # 3 for Se read from file:
     /root/qe_pseudos/Se.UPF
     MD5 check sum: 8e2a6847b5cb9faee9497ebb573e71ea
     Pseudo is Ultrasoft + core correction, Zval =  6.0
     Generated using &quot;atomic&quot; code by A. Dal Corso  v.6.3
     Using radial grid of 1211 points,  4 beta functions with: 
                l(1) =   0
                l(2) =   0
                l(3) =   1
                l(4) =   1
     Q(r) pseudized with 0 coefficients 


     atomic species   valence    mass     pseudopotential
     Bi               15.00   208.98040     Bi( 1.00)
     Pd               10.00   106.42000     Pd( 1.00)
     Se                6.00    78.97100     Se( 1.00)

     No symmetry found



   Cartesian axes

     site n.     atom                  positions (alat units)
         1        Pd     tau(   1) = (   0.2484615   1.0279893   0.7200311  )
         2        Pd     tau(   2) = (   0.5003338   0.7718333   0.7154025  )
         3        Pd     tau(   3) = (   0.7498827   0.5146490   0.7152116  )
         4        Pd     tau(   4) = (   0.5013392   0.2576406   0.7196320  )
         5        Pd     tau(   5) = (   1.0003098   0.7724478   0.7150957  )
         6        Pd     tau(   6) = (   0.2491264   0.5154440   0.7144858  )
         7        Pd     tau(   7) = (   0.7496193   1.0294147   0.7153475  )
         8        Pd     tau(   8) = (   0.9987406   0.2585334   0.7145630  )
         9        Se     tau(   9) = (   0.9448965   0.9685577   0.7815897  )
        10        Se     tau(  10) = (   0.8048950   0.7103862   0.7820197  )
        11        Se     tau(  11) = (   0.5543739   0.5757293   0.6488772  )
        12        Se     tau(  12) = (   0.0549723   0.0626383   0.6489357  )
        13        Se     tau(  13) = (   0.6948323   0.3189690   0.6482211  )
        14        Se     tau(  14) = (   0.9451287   0.4539905   0.7818877  )
        15        Se     tau(  15) = (   0.4439470   0.4539776   0.7837275  )
        16        Se     tau(  16) = (   0.5540043   0.0613955   0.6494779  )
        17        Se     tau(  17) = (   0.3119449   0.1889663   0.7921914  )
        18        Se     tau(  18) = (   0.6955749   0.8335496   0.6482832  )
        19        Se     tau(  19) = (   0.1956590   0.8340087   0.6480232  )
        20        Se     tau(  20) = (   0.4457251   0.9663943   0.7833186  )
        21        Se     tau(  21) = (   0.3043922   0.7106793   0.7815240  )
        22        Se     tau(  22) = (   0.0543077   0.5768924   0.6477451  )
        23        Se     tau(  23) = (   0.1944398   0.3193564   0.6541549  )
        24        Se     tau(  24) = (   0.8042049   0.1960126   0.7816288  )
        25        Bi     tau(  25) = (   0.3042380   0.1993453   0.9878299  )

     number of k points=     1  Methfessel-Paxton smearing, width (Ry)=  0.0100
                       cart. coord. in units 2pi/alat
        k(    1) = (   0.0000000   0.0000000   0.0000000), wk =   2.0000000

     Dense  grid:   616503 G-vectors     FFT dimensions: (  96,  96, 135)

     Smooth grid:   335437 G-vectors     FFT dimensions: (  75,  80, 120)

     Estimated max dynamical RAM per process >       2.76 GB

     Initial potential from superposition of free atoms

     starting charge     190.9934, renormalised to     191.0000

     negative rho (up, down):  4.185E-02 0.000E+00
     Starting wfcs are  145 randomized atomic wfcs
     Checking if some PAW data can be deallocated... 

     total cpu time spent up to now is       11.9 secs

     Self-consistent Calculation

     iteration #  1     ecut=    30.00 Ry     beta= 0.40
     Davidson diagonalization with overlap
     ethr =  1.00E-02,  avg # of iterations =  4.0

     Threshold (ethr) on eigenvalues was too large:
     Diagonalizing with lowered threshold

     Davidson diagonalization with overlap
     ethr =  3.14E-04,  avg # of iterations =  4.0

     negative rho (up, down):  4.639E-02 0.000E+00

     total cpu time spent up to now is       17.3 secs

     total energy              =   -3887.67716400 Ry
     estimated scf accuracy    <       0.68309571 Ry

     iteration #  2     ecut=    30.00 Ry     beta= 0.40
     Davidson diagonalization with overlap
     ethr =  3.58E-04,  avg # of iterations =  2.0

     negative rho (up, down):  5.149E-02 0.000E+00

     total cpu time spent up to now is       22.0 secs

     total energy              =   -3887.72502538 Ry
     estimated scf accuracy    <       0.50141253 Ry

     iteration #  3     ecut=    30.00 Ry     beta= 0.40
     Davidson diagonalization with overlap
     ethr =  2.63E-04,  avg # of iterations =  2.0

     negative rho (up, down):  5.623E-02 0.000E+00

     total cpu time spent up to now is       26.7 secs

     total energy              =   -3887.77609538 Ry
     estimated scf accuracy    <       0.14242622 Ry

     iteration #  4     ecut=    30.00 Ry     beta= 0.40
     Davidson diagonalization with overlap
     ethr =  7.46E-05,  avg # of iterations = 12.0

     negative rho (up, down):  5.998E-02 0.000E+00

     total cpu time spent up to now is       31.8 secs

     total energy              =   -3887.78697473 Ry
     estimated scf accuracy    <       0.08308543 Ry

     iteration #  5     ecut=    30.00 Ry     beta= 0.40
     Davidson diagonalization with overlap
     ethr =  4.35E-05,  avg # of iterations =  2.0

     negative rho (up, down):  6.152E-02 0.000E+00

     total cpu time spent up to now is       36.8 secs

     total energy              =   -3887.79584346 Ry
     estimated scf accuracy    <       0.00476439 Ry

     iteration #  6     ecut=    30.00 Ry     beta= 0.40
     Davidson diagonalization with overlap
     ethr =  2.49E-06,  avg # of iterations = 14.0

     negative rho (up, down):  6.234E-02 0.000E+00

     total cpu time spent up to now is       42.3 secs

     total energy              =   -3887.79672700 Ry
     estimated scf accuracy    <       0.00106411 Ry

     iteration #  7     ecut=    30.00 Ry     beta= 0.40
     Davidson diagonalization with overlap
     ethr =  5.57E-07,  avg # of iterations =  2.0

     negative rho (up, down):  6.279E-02 0.000E+00

     total cpu time spent up to now is       47.1 secs

     total energy              =   -3887.79685638 Ry
     estimated scf accuracy    <       0.00038965 Ry

     iteration #  8     ecut=    30.00 Ry     beta= 0.40
     Davidson diagonalization with overlap
     ethr =  2.04E-07,  avg # of iterations =  2.0

     negative rho (up, down):  6.308E-02 0.000E+00

     total cpu time spent up to now is       51.7 secs

     total energy              =   -3887.79691187 Ry
     estimated scf accuracy    <       0.00006395 Ry

     iteration #  9     ecut=    30.00 Ry     beta= 0.40
     Davidson diagonalization with overlap
     ethr =  3.35E-08,  avg # of iterations =  2.0

     negative rho (up, down):  6.326E-02 0.000E+00

     total cpu time spent up to now is       56.5 secs

     total energy              =   -3887.79692098 Ry
     estimated scf accuracy    <       0.00002678 Ry

     iteration # 10     ecut=    30.00 Ry     beta= 0.40
     Davidson diagonalization with overlap
     ethr =  1.40E-08,  avg # of iterations =  1.0

     negative rho (up, down):  6.336E-02 0.000E+00

     total cpu time spent up to now is       61.1 secs

     total energy              =   -3887.79692482 Ry
     estimated scf accuracy    <       0.00000388 Ry

     iteration # 11     ecut=    30.00 Ry     beta= 0.40
     Davidson diagonalization with overlap
     ethr =  2.03E-09,  avg # of iterations =  2.0

     negative rho (up, down):  6.342E-02 0.000E+00

     total cpu time spent up to now is       65.9 secs

     total energy              =   -3887.79692540 Ry
     estimated scf accuracy    <       0.00000095 Ry

     iteration # 12     ecut=    30.00 Ry     beta= 0.40
     Davidson diagonalization with overlap
     ethr =  4.96E-10,  avg # of iterations =  3.0

     negative rho (up, down):  6.346E-02 0.000E+00

     total cpu time spent up to now is       70.7 secs

     total energy              =   -3887.79692558 Ry
     estimated scf accuracy    <       0.00000051 Ry

     iteration # 13     ecut=    30.00 Ry     beta= 0.40
     Davidson diagonalization with overlap
     ethr =  2.68E-10,  avg # of iterations =  2.0

     negative rho (up, down):  6.352E-02 0.000E+00

     total cpu time spent up to now is       75.4 secs

     End of self-consistent calculation

          k = 0.0000 0.0000 0.0000 ( 41925 PWs)   bands (ev):

   -24.3135 -24.0093 -23.8903 -23.8184 -23.7984 -16.8834 -16.4916 -16.1862
   -16.1276 -16.1010 -16.0435 -15.9621 -15.8009 -14.4554 -14.0609 -14.0018
   -13.8420 -13.8188 -13.8086 -13.7438 -13.5042 -11.5358  -7.7143  -7.5748
    -7.5127  -7.4440  -7.3888  -7.3058  -7.2865  -6.7490  -6.6260  -6.5561
    -6.4552  -6.3848  -6.3604  -6.3073  -6.2248  -6.1831  -6.1164  -6.1125
    -5.9895  -5.8108  -5.7381  -5.6952  -5.6038  -5.5184  -5.4181  -5.3547
    -5.1628  -5.0185  -4.9637  -4.9053  -4.8831  -4.8253  -4.6873  -4.6679
    -4.5062  -4.4784  -4.4631  -4.3918  -4.3334  -4.2885  -4.0897  -4.0669
    -4.0332  -4.0136  -3.9908  -3.9467  -3.8607  -3.8064  -3.7262  -3.6794
    -3.6538  -3.6153  -3.4997  -3.4617  -3.4156  -3.3990  -3.3868  -3.3353
    -3.2982  -3.2838  -3.2808  -3.2200  -3.1906  -3.0699  -3.0070  -2.9408
    -2.8851  -2.6014  -2.5045  -2.4711  -2.3796  -2.3665  -1.9111  -1.6391
    -0.9400  -0.7570  -0.6861  -0.6451  -0.5647  -0.4561  -0.4223  -0.2464
    -0.1499  -0.0340   0.0614   0.3032   0.3433   0.5229   0.5710   0.7411
     1.7588   1.8699   2.4165

     the Fermi energy is    -1.6404 ev

!    total energy              =   -3887.79692560 Ry
     estimated scf accuracy    <       0.00000009 Ry
     smearing contrib. (-TS)   =      -0.00244696 Ry
     internal energy E=F+TS    =   -3887.79447864 Ry

     The total energy is F=E-TS. E is the sum of the following terms:
     one-electron contribution =   -3179.04329504 Ry
     hartree contribution      =    1668.72479119 Ry
     xc contribution           =    -307.88347876 Ry
     ewald contribution        =     814.33991834 Ry
     one-center paw contrib.   =   -2883.93241436 Ry

     convergence has been achieved in  13 iterations

     negative rho (up, down):  6.352E-02 0.000E+00

     Forces acting on atoms (cartesian axes, Ry/au):

     atom    1 type  2   force =    -0.00068932   -0.00472852   -0.00229645
     atom    2 type  2   force =     0.00081768    0.00182282   -0.00043434
     atom    3 type  2   force =    -0.00072125   -0.00015315   -0.00028376
     atom    4 type  2   force =     0.00712176    0.00215537   -0.00336913
     atom    5 type  2   force =     0.00024007   -0.00025202    0.00005976
     atom    6 type  2   force =     0.00009664   -0.00078727    0.00009417
     atom    7 type  2   force =    -0.00088384    0.00053371    0.00029712
     atom    8 type  2   force =    -0.00250258    0.00145308   -0.00018674
     atom    9 type  3   force =     0.00123199    0.00070282    0.00349460
     atom   10 type  3   force =    -0.00048100    0.00089967    0.00207532
     atom   11 type  3   force =    -0.00178863    0.00199540   -0.00338640
     atom   12 type  3   force =    -0.00328998    0.00001537   -0.00328004
     atom   13 type  3   force =     0.00098126   -0.00113382    0.00002305
     atom   14 type  3   force =     0.00260876    0.00138083    0.00257554
     atom   15 type  3   force =    -0.00057799    0.00228160    0.00719323
     atom   16 type  3   force =    -0.00103298   -0.00491399   -0.00219940
     atom   17 type  3   force =     0.01598528   -0.01939315   -0.20228836
     atom   18 type  3   force =     0.00096766   -0.00235688   -0.00271321
     atom   19 type  3   force =     0.00089295   -0.00188271   -0.00145773
     atom   20 type  3   force =     0.00552461   -0.00657746    0.00035399
     atom   21 type  3   force =    -0.00081754    0.00092473    0.00158108
     atom   22 type  3   force =    -0.00121709   -0.00317903   -0.00284545
     atom   23 type  3   force =    -0.01329883    0.01447286   -0.02192352
     atom   24 type  3   force =    -0.00098041    0.00111539    0.00157914
     atom   25 type  1   force =    -0.00818719    0.01560433    0.22733754

     Total force =     0.307911     Total SCF correction =     0.000617


     Computing stress (Cartesian axis) and pressure


     negative rho (up, down):  6.352E-02 0.000E+00
          total   stress  (Ry/bohr**3)                   (kbar)     P=      -26.91
  -0.00022043  -0.00000418   0.00000096          -32.43       -0.61        0.14
  -0.00000418  -0.00019620   0.00000441           -0.61      -28.86        0.65
   0.00000096   0.00000441  -0.00013222            0.14        0.65      -19.45


     Writing all to output data dir /root/qe_scratch/cand248_B_Pd2Se4_Bi.save/ :
     XML data file, charge density, pseudopotentials, collected wavefunctions
 
     init_run     :      8.66s CPU     11.01s WALL (       1 calls)
     electrons    :     52.96s CPU     63.49s WALL (       1 calls)
     forces       :      1.05s CPU      1.07s WALL (       1 calls)
     stress       :      0.68s CPU      0.70s WALL (       1 calls)

     Called by init_run:
     wfcinit      :      0.19s CPU      0.39s WALL (       1 calls)
     potinit      :      7.39s CPU      9.27s WALL (       1 calls)
     hinit0       :      0.56s CPU      0.64s WALL (       1 calls)

     Called by electrons:
     c_bands      :      4.23s CPU      4.25s WALL (      14 calls)
     sum_band     :      1.14s CPU      1.16s WALL (      14 calls)
     v_of_rho     :      1.12s CPU      1.50s WALL (      14 calls)
     newd         :      4.13s CPU      4.22s WALL (      14 calls)
                                        4.22s GPU  (      14 calls)
     PAW_pot      :     43.52s CPU     53.93s WALL (      14 calls)
     mix_rho      :      0.56s CPU      0.61s WALL (      14 calls)

     Called by c_bands:
     init_us_2    :      0.03s CPU      0.03s WALL (      29 calls)
     cegterg      :      4.14s CPU      4.16s WALL (      14 calls)

     Called by *egterg:
     cdiaghg      :      0.50s CPU      0.53s WALL (      67 calls)
                                        0.53s GPU  (      67 calls)
     h_psi        :      1.46s CPU      1.64s WALL (      69 calls)
                                        1.64s GPU  (      69 calls)
     s_psi        :      0.06s CPU      0.06s WALL (      69 calls)
     g_psi        :      0.00s CPU      0.01s WALL (      54 calls)
                                        0.01s GPU  (      54 calls)

     Called by h_psi:
     h_psi:calbec :      0.09s CPU      0.55s WALL (      69 calls)
                                        0.55s GPU  (      69 calls)
     vloc_psi     :      0.75s CPU      0.76s WALL (      69 calls)
                                        0.76s GPU  (      69 calls)
     add_vuspsi   :      0.06s CPU      0.32s WALL (      69 calls)
                                        0.32s GPU  (      69 calls)

     General routines
     calbec       :      0.09s CPU      0.25s WALL (      88 calls)
     fft          :      3.44s CPU      4.50s WALL (     206 calls)
                                        0.03s GPU  (     192 calls)
     ffts         :      2.01s CPU      2.42s WALL (      28 calls)
                                        0.00s GPU  (      14 calls)
     fftw         :      0.02s CPU      0.75s WALL (     690 calls)
                                        0.75s GPU  (     690 calls)
     interpolate  :      5.54s CPU      6.98s WALL (      14 calls)
 
     Parallel routines
 
     PWSCF        :   1m 4.37s CPU   1m17.43s WALL

 
   This run was terminated on:   2:52: 5   7May2026            

=------------------------------------------------------------------------------=
   JOB DONE.
=------------------------------------------------------------------------------=
Warning: ieee_invalid is signaling
Warning: ieee_divide_by_zero is signaling
Warning: ieee_inexact is signaling
FORTRAN STOP
