--------------------------------------------------------------------------
WARNING: Open MPI tried to bind a process but failed.  This is a
warning only; your job will continue, though performance may
be degraded.

  Local host:        3253031b5b37
  Application name:  /root/qe-7.3.1/bin/pw.x
  Error message:     failed to bind memory
  Location:          ../../../../../orte/mca/rtc/hwloc/rtc_hwloc.c:447

--------------------------------------------------------------------------

     Program PWSCF v.7.3.1 starts on  7May2026 at  3:13:24 

     This program is part of the open-source Quantum ESPRESSO suite
     for quantum simulation of materials; please cite
         "P. Giannozzi et al., J. Phys.:Condens. Matter 21 395502 (2009);
         "P. Giannozzi et al., J. Phys.:Condens. Matter 29 465901 (2017);
         "P. Giannozzi et al., J. Chem. Phys. 152 154105 (2020);
          URL http://www.quantum-espresso.org", 
     in publications or presentations arising from this work. More details at
     http://www.quantum-espresso.org/quote

     Parallel version (MPI & OpenMP), running on       8 processor cores
     Number of MPI processes:                 1
     Threads/MPI process:                     8

     MPI processes distributed on     1 nodes
     90287 MiB available memory on the printing compute node when the environment starts
 
     Reading input from cand263_A_TiS2_Pb.in

     Current dimensions of program PWSCF are:
     Max number of different atomic species (ntypx) = 10
     Max number of k-points (npk) =  40000
     Max angular momentum in pseudopotentials (lmaxx) =  4
     file Pb.UPF: wavefunction(s)  6S 6P 5D renormalized
     file S.UPF: wavefunction(s)  3S 3P renormalized
     file Ti.UPF: wavefunction(s)  3S 3P 3D renormalized
 
     Subspace diagonalization in iterative solution of the eigenvalue problem:
     a serial algorithm will be used

 
     G-vector sticks info
     --------------------
     sticks:   dense  smooth     PW     G-vecs:    dense   smooth      PW
     Sum        4675    3103    769               446431   242967   30407
 
     Using Slab Decomposition
 


     bravais-lattice index     =            0
     lattice parameter (alat)  =      19.3567  a.u.
     unit-cell volume          =   10943.8233 (a.u.)^3
     number of atoms/cell      =           28
     number of atomic types    =            3
     number of electrons       =       230.00
     number of Kohn-Sham states=          138
     kinetic-energy cutoff     =      30.0000  Ry
     charge density cutoff     =     180.0000  Ry
     scf convergence threshold =      1.0E-07
     mixing beta               =       0.4000
     number of iterations used =            8  plain     mixing
     Exchange-correlation= SLA  PW   PBX  PBC
                           (   1   4   3   4   0   0   0)

     GPU acceleration is ACTIVE.  1 visible GPUs per MPI rank


     celldm(1)=  19.356728  celldm(2)=   0.000000  celldm(3)=   0.000000
     celldm(4)=   0.000000  celldm(5)=   0.000000  celldm(6)=   0.000000

     crystal axes: (cart. coord. in units of alat)
               a(1) = (   1.000000   0.000000   0.000000 )  
               a(2) = (  -0.500000   0.866025   0.000000 )  
               a(3) = (   0.000000   0.000000   1.742379 )  

     reciprocal axes: (cart. coord. in units 2 pi/alat)
               b(1) = (  1.000000  0.577350 -0.000000 )  
               b(2) = (  0.000000  1.154701  0.000000 )  
               b(3) = (  0.000000 -0.000000  0.573928 )  


     PseudoPot. # 1 for Pb read from file:
     /root/qe_pseudos/Pb.UPF
     MD5 check sum: 8dd1fa6bc87c0adeb4efb5a3e91ed847
     Pseudo is Projector augmented-wave + core cor, Zval = 14.0
     Generated using &quot;atomic&quot; code by A. Dal Corso  v.6.3
     Shape of augmentation charge: PSQ
     Using radial grid of 1281 points,  6 beta functions with: 
                l(1) =   0
                l(2) =   0
                l(3) =   1
                l(4) =   1
                l(5) =   2
                l(6) =   2
     Q(r) pseudized with 0 coefficients 


     PseudoPot. # 2 for S  read from file:
     /root/qe_pseudos/S.UPF
     MD5 check sum: fb45dfebcf3e72a4e1bd4a866ec2e262
     Pseudo is Projector augmented-wave + core cor, Zval =  6.0
     Generated using &quot;atomic&quot; code by A. Dal Corso  v.6.3
     Shape of augmentation charge: PSQ
     Using radial grid of 1151 points,  6 beta functions with: 
                l(1) =   0
                l(2) =   0
                l(3) =   1
                l(4) =   1
                l(5) =   2
                l(6) =   2
     Q(r) pseudized with 0 coefficients 


     PseudoPot. # 3 for Ti read from file:
     /root/qe_pseudos/Ti.UPF
     MD5 check sum: 01f69b0d8ba4438b2e03ac6ea4af1c0b
     Pseudo is Projector augmented-wave + core cor, Zval = 12.0
     Generated using &quot;atomic&quot; code by A. Dal Corso  v.6.2.2
     Shape of augmentation charge: PSQ
     Using radial grid of 1177 points,  6 beta functions with: 
                l(1) =   0
                l(2) =   0
                l(3) =   1
                l(4) =   1
                l(5) =   2
                l(6) =   2
     Q(r) pseudized with 0 coefficients 


     atomic species   valence    mass     pseudopotential
     Pb               14.00   207.20000     Pb( 1.00)
     S                 6.00    32.06000     S ( 1.00)
     Ti               12.00    47.86700     Ti( 1.00)

     No symmetry found



   Cartesian axes

     site n.     atom                  positions (alat units)
         1        S      tau(   1) = (   0.4999468   0.6702534   1.0181371  )
         2        S      tau(   2) = (   0.4999755   0.4846998   0.7320928  )
         3        S      tau(   3) = (   0.6650522   0.3829870   1.0090383  )
         4        S      tau(   4) = (   0.6705831   0.1921941   0.7354266  )
         5        S      tau(   5) = (   0.8249904   0.1042744   1.0221543  )
         6        S      tau(   6) = (  -0.0001349   0.7725681   0.7300484  )
         7        S      tau(   7) = (   0.1710969   0.6766022   1.0140063  )
         8        S      tau(   8) = (   0.1643174   0.4839137   0.7286834  )
         9        S      tau(   9) = (   0.3332283   0.7718640   0.7360284  )
        10        S      tau(  10) = (   0.3292831   0.1922629   0.7353418  )
        11        S      tau(  11) = (   0.3346289   0.3830805   1.0092113  )
        12        S      tau(  12) = (  -0.3332926   0.7719451   0.7361235  )
        13        S      tau(  13) = (  -0.1709810   0.6764493   1.0139412  )
        14        S      tau(  14) = (  -0.1642046   0.4839418   0.7287353  )
        15        S      tau(  15) = (  -0.0000284   0.3847364   1.0141299  )
        16        S      tau(  16) = (  -0.0000232   0.1861311   0.7465096  )
        17        S      tau(  17) = (   0.1750015   0.1043349   1.0222061  )
        18        S      tau(  18) = (   0.4999815   0.0982218   1.0080377  )
        19        Ti     tau(  19) = (   0.1731371   0.3043562   0.8644675  )
        20        Ti     tau(  20) = (   0.3422682  -0.0155400   0.8724494  )
        21        Ti     tau(  21) = (   0.0000746   0.5680099   0.8794644  )
        22        Ti     tau(  22) = (  -0.3364706   0.5772599   0.8740031  )
        23        Ti     tau(  23) = (   0.6576818  -0.0155671   0.8720788  )
        24        Ti     tau(  24) = (   0.5000997   0.2858714   0.8647846  )
        25        Ti     tau(  25) = (  -0.1726265   0.3043208   0.8641697  )
        26        Ti     tau(  26) = (   0.3363485   0.5774752   0.8740204  )
        27        Ti     tau(  27) = (   0.0000626  -0.0050307   0.8684644  )
        28        Pb     tau(  28) = (   0.0000038   0.0869140   1.1537036  )

     number of k points=     1  Methfessel-Paxton smearing, width (Ry)=  0.0100
                       cart. coord. in units 2pi/alat
        k(    1) = (   0.0000000   0.0000000   0.0000000), wk =   2.0000000

     Dense  grid:   446431 G-vectors     FFT dimensions: (  90,  90, 150)

     Smooth grid:   242967 G-vectors     FFT dimensions: (  72,  72, 120)

     Estimated max dynamical RAM per process >       2.17 GB

     Check: negative core charge=   -0.000025

     Initial potential from superposition of free atoms

     starting charge     229.9838, renormalised to     230.0000

     negative rho (up, down):  1.912E-02 0.000E+00
     Starting wfcs are  171 randomized atomic wfcs
     Checking if some PAW data can be deallocated... 

     total cpu time spent up to now is       20.4 secs

     Self-consistent Calculation

     iteration #  1     ecut=    30.00 Ry     beta= 0.40
     Davidson diagonalization with overlap
     ethr =  1.00E-02,  avg # of iterations =  2.0

     negative rho (up, down):  1.882E-02 0.000E+00

     total cpu time spent up to now is       32.7 secs

     total energy              =   -3717.23468754 Ry
     estimated scf accuracy    <       3.12629965 Ry

     iteration #  2     ecut=    30.00 Ry     beta= 0.40
     Davidson diagonalization with overlap
     ethr =  1.36E-03,  avg # of iterations =  5.0

     negative rho (up, down):  3.556E-02 0.000E+00

     total cpu time spent up to now is       44.9 secs

     total energy              =   -3716.76616785 Ry
     estimated scf accuracy    <       9.25851622 Ry

     iteration #  3     ecut=    30.00 Ry     beta= 0.40
     Davidson diagonalization with overlap
     ethr =  1.36E-03,  avg # of iterations =  3.0

     negative rho (up, down):  3.945E-02 0.000E+00

     total cpu time spent up to now is       57.1 secs

     total energy              =   -3718.03942220 Ry
     estimated scf accuracy    <       1.17157202 Ry

     iteration #  4     ecut=    30.00 Ry     beta= 0.40
     Davidson diagonalization with overlap
     ethr =  5.09E-04,  avg # of iterations =  5.0

     negative rho (up, down):  4.314E-02 0.000E+00

     total cpu time spent up to now is       69.4 secs

     total energy              =   -3718.15580487 Ry
     estimated scf accuracy    <       0.59858404 Ry

     iteration #  5     ecut=    30.00 Ry     beta= 0.40
     Davidson diagonalization with overlap
     ethr =  2.60E-04,  avg # of iterations =  2.0

     negative rho (up, down):  5.371E-02 0.000E+00

     total cpu time spent up to now is       81.7 secs

     total energy              =   -3718.17569381 Ry
     estimated scf accuracy    <       0.42019044 Ry

     iteration #  6     ecut=    30.00 Ry     beta= 0.40
     Davidson diagonalization with overlap
     ethr =  1.83E-04,  avg # of iterations =  2.0

     negative rho (up, down):  6.882E-02 0.000E+00

     total cpu time spent up to now is       93.9 secs

     total energy              =   -3718.18675289 Ry
     estimated scf accuracy    <       0.18417091 Ry

     iteration #  7     ecut=    30.00 Ry     beta= 0.40
     Davidson diagonalization with overlap
     ethr =  8.01E-05,  avg # of iterations =  2.0

     negative rho (up, down):  8.919E-02 0.000E+00

     total cpu time spent up to now is      106.2 secs

     total energy              =   -3718.19786952 Ry
     estimated scf accuracy    <       0.06656268 Ry

     iteration #  8     ecut=    30.00 Ry     beta= 0.40
     Davidson diagonalization with overlap
     ethr =  2.89E-05,  avg # of iterations =  7.0

     negative rho (up, down):  1.247E-01 0.000E+00

     total cpu time spent up to now is      118.6 secs

     total energy              =   -3718.21319224 Ry
     estimated scf accuracy    <       0.03450307 Ry

     iteration #  9     ecut=    30.00 Ry     beta= 0.40
     Davidson diagonalization with overlap
     ethr =  1.50E-05,  avg # of iterations =  3.0

     negative rho (up, down):  1.687E-01 0.000E+00

     total cpu time spent up to now is      130.9 secs

     total energy              =   -3718.22033261 Ry
     estimated scf accuracy    <       0.01621329 Ry

     iteration # 10     ecut=    30.00 Ry     beta= 0.40
     Davidson diagonalization with overlap
     ethr =  7.05E-06,  avg # of iterations =  2.0

     negative rho (up, down):  2.287E-01 0.000E+00

     total cpu time spent up to now is      143.0 secs

     total energy              =   -3718.22570047 Ry
     estimated scf accuracy    <       0.01360227 Ry

     iteration # 11     ecut=    30.00 Ry     beta= 0.40
     Davidson diagonalization with overlap
     ethr =  5.91E-06,  avg # of iterations =  2.0

     negative rho (up, down):  3.213E-01 0.000E+00

     total cpu time spent up to now is      155.1 secs

     total energy              =   -3718.22493144 Ry
     estimated scf accuracy    <       0.00636359 Ry

     iteration # 12     ecut=    30.00 Ry     beta= 0.40
     Davidson diagonalization with overlap
     ethr =  2.77E-06,  avg # of iterations =  3.0

     negative rho (up, down):  4.895E-01 0.000E+00

     total cpu time spent up to now is      167.4 secs

     total energy              =   -3718.19843276 Ry
     estimated scf accuracy    <       0.00842392 Ry

     iteration # 13     ecut=    30.00 Ry     beta= 0.40
     Davidson diagonalization with overlap
     ethr =  2.77E-06,  avg # of iterations = 13.0

     negative rho (up, down):  6.764E-01 0.000E+00

     total cpu time spent up to now is      179.8 secs

     total energy              =   -3718.15490774 Ry
     estimated scf accuracy    <       0.02840737 Ry

     iteration # 14     ecut=    30.00 Ry     beta= 0.40
     Davidson diagonalization with overlap
     ethr =  2.77E-06,  avg # of iterations = 16.0

     negative rho (up, down):  9.255E-01 0.000E+00

     total cpu time spent up to now is      192.8 secs

     total energy              =   -3718.07628862 Ry
     estimated scf accuracy    <       0.02295382 Ry

     iteration # 15     ecut=    30.00 Ry     beta= 0.40
     Davidson diagonalization with overlap
     ethr =  2.77E-06,  avg # of iterations =  2.0

     negative rho (up, down):  7.996E-01 0.000E+00

     total cpu time spent up to now is      204.9 secs

     total energy              =   -3718.14292813 Ry
     estimated scf accuracy    <       0.03043326 Ry

     iteration # 16     ecut=    30.00 Ry     beta= 0.40
     Davidson diagonalization with overlap
     ethr =  2.77E-06,  avg # of iterations =  2.0

     negative rho (up, down):  5.904E-01 0.000E+00

     total cpu time spent up to now is      217.2 secs

     total energy              =   -3718.25885889 Ry
     estimated scf accuracy    <       0.02509081 Ry

     iteration # 17     ecut=    30.00 Ry     beta= 0.40
     Davidson diagonalization with overlap
     ethr =  2.77E-06,  avg # of iterations =  3.0

     negative rho (up, down):  6.935E-01 0.000E+00

     total cpu time spent up to now is      229.4 secs

     total energy              =   -3718.26036198 Ry
     estimated scf accuracy    <       0.02136063 Ry

     iteration # 18     ecut=    30.00 Ry     beta= 0.40
     Davidson diagonalization with overlap
     ethr =  2.77E-06,  avg # of iterations =  2.0

     negative rho (up, down):  7.923E-01 0.000E+00

     total cpu time spent up to now is      241.6 secs

     total energy              =   -3718.25840483 Ry
     estimated scf accuracy    <       0.01687496 Ry

     iteration # 19     ecut=    30.00 Ry     beta= 0.40
     Davidson diagonalization with overlap
     ethr =  2.77E-06,  avg # of iterations =  2.0

     negative rho (up, down):  9.168E-01 0.000E+00

     total cpu time spent up to now is      253.7 secs

     total energy              =   -3718.23808516 Ry
     estimated scf accuracy    <       0.01835353 Ry

     iteration # 20     ecut=    30.00 Ry     beta= 0.40
     Davidson diagonalization with overlap
     ethr =  2.77E-06,  avg # of iterations =  2.0

     negative rho (up, down):  9.766E-01 0.000E+00

     total cpu time spent up to now is      265.8 secs

     total energy              =   -3718.24400761 Ry
     estimated scf accuracy    <       0.02372163 Ry

     iteration # 21     ecut=    30.00 Ry     beta= 0.40
     Davidson diagonalization with overlap
     ethr =  2.77E-06,  avg # of iterations =  2.0

     negative rho (up, down):  1.245E+00 0.000E+00

     total cpu time spent up to now is      278.0 secs

     total energy              =   -3718.13136775 Ry
     estimated scf accuracy    <       0.02518052 Ry

     iteration # 22     ecut=    30.00 Ry     beta= 0.40
     Davidson diagonalization with overlap
     ethr =  2.77E-06,  avg # of iterations = 11.0

     negative rho (up, down):  1.002E+00 0.000E+00

     total cpu time spent up to now is      290.4 secs

     total energy              =   -3718.29024384 Ry
     estimated scf accuracy    <       0.05655772 Ry

     iteration # 23     ecut=    30.00 Ry     beta= 0.40
     Davidson diagonalization with overlap
     ethr =  2.77E-06,  avg # of iterations = 17.0

     negative rho (up, down):  1.051E+00 0.000E+00

     total cpu time spent up to now is      303.0 secs

     total energy              =   -3718.31191128 Ry
     estimated scf accuracy    <       0.06975154 Ry

     iteration # 24     ecut=    30.00 Ry     beta= 0.40
     Davidson diagonalization with overlap
     ethr =  2.77E-06,  avg # of iterations = 16.0

     negative rho (up, down):  1.162E+00 0.000E+00

     total cpu time spent up to now is      315.8 secs

     total energy              =   -3718.28430819 Ry
     estimated scf accuracy    <       0.05451660 Ry

     iteration # 25     ecut=    30.00 Ry     beta= 0.40
     Davidson diagonalization with overlap
     ethr =  2.77E-06,  avg # of iterations = 10.0

     negative rho (up, down):  1.350E+00 0.000E+00

     total cpu time spent up to now is      328.3 secs

     total energy              =   -3718.19951677 Ry
     estimated scf accuracy    <       0.02127943 Ry

     iteration # 26     ecut=    30.00 Ry     beta= 0.40
     Davidson diagonalization with overlap
     ethr =  2.77E-06,  avg # of iterations =  2.0

     negative rho (up, down):  1.457E+00 0.000E+00

     total cpu time spent up to now is      340.4 secs

     total energy              =   -3718.14394167 Ry
     estimated scf accuracy    <       0.03402383 Ry

     iteration # 27     ecut=    30.00 Ry     beta= 0.40
     Davidson diagonalization with overlap
     ethr =  2.77E-06,  avg # of iterations =  2.0

     negative rho (up, down):  1.396E+00 0.000E+00

     total cpu time spent up to now is      352.6 secs

     total energy              =   -3718.18629217 Ry
     estimated scf accuracy    <       0.04583639 Ry

     iteration # 28     ecut=    30.00 Ry     beta= 0.40
     Davidson diagonalization with overlap
     ethr =  2.77E-06,  avg # of iterations =  3.0

     negative rho (up, down):  1.309E+00 0.000E+00

     total cpu time spent up to now is      364.9 secs

     total energy              =   -3718.25698997 Ry
     estimated scf accuracy    <       0.05047519 Ry

     iteration # 29     ecut=    30.00 Ry     beta= 0.40
     Davidson diagonalization with overlap
     ethr =  2.77E-06,  avg # of iterations =  7.0

     negative rho (up, down):  1.280E+00 0.000E+00

     total cpu time spent up to now is      377.3 secs

     total energy              =   -3718.32006273 Ry
     estimated scf accuracy    <       0.05277113 Ry

     iteration # 30     ecut=    30.00 Ry     beta= 0.40
     Davidson diagonalization with overlap
     ethr =  2.77E-06,  avg # of iterations =  7.0

     negative rho (up, down):  1.323E+00 0.000E+00

     total cpu time spent up to now is      389.8 secs

     total energy              =   -3718.34120900 Ry
     estimated scf accuracy    <       0.03055412 Ry

     iteration # 31     ecut=    30.00 Ry     beta= 0.40
     Davidson diagonalization with overlap
     ethr =  2.77E-06,  avg # of iterations = 12.0

     negative rho (up, down):  1.314E+00 0.000E+00

     total cpu time spent up to now is      402.6 secs

     total energy              =   -3718.36338446 Ry
     estimated scf accuracy    <       0.01693063 Ry

     iteration # 32     ecut=    30.00 Ry     beta= 0.40
     Davidson diagonalization with overlap
     ethr =  2.77E-06,  avg # of iterations = 14.0

     negative rho (up, down):  1.358E+00 0.000E+00

     total cpu time spent up to now is      415.5 secs

     total energy              =   -3718.36826887 Ry
     estimated scf accuracy    <       0.01201365 Ry

     iteration # 33     ecut=    30.00 Ry     beta= 0.40
     Davidson diagonalization with overlap
     ethr =  2.77E-06,  avg # of iterations = 11.0

     negative rho (up, down):  1.397E+00 0.000E+00

     total cpu time spent up to now is      428.2 secs

     total energy              =   -3718.36668370 Ry
     estimated scf accuracy    <       0.01080388 Ry

     iteration # 34     ecut=    30.00 Ry     beta= 0.40
     Davidson diagonalization with overlap
     ethr =  2.77E-06,  avg # of iterations =  8.0

     negative rho (up, down):  1.423E+00 0.000E+00

     total cpu time spent up to now is      440.7 secs

     total energy              =   -3718.37123190 Ry
     estimated scf accuracy    <       0.01628476 Ry

     iteration # 35     ecut=    30.00 Ry     beta= 0.40
     Davidson diagonalization with overlap
     ethr =  2.77E-06,  avg # of iterations =  2.0

     negative rho (up, down):  1.445E+00 0.000E+00

     total cpu time spent up to now is      452.9 secs

     total energy              =   -3718.37357560 Ry
     estimated scf accuracy    <       0.00418402 Ry

     iteration # 36     ecut=    30.00 Ry     beta= 0.40
     Davidson diagonalization with overlap
     ethr =  1.82E-06,  avg # of iterations =  2.0

     negative rho (up, down):  1.465E+00 0.000E+00

     total cpu time spent up to now is      465.3 secs

     total energy              =   -3718.37488288 Ry
     estimated scf accuracy    <       0.00103321 Ry

     iteration # 37     ecut=    30.00 Ry     beta= 0.40
     Davidson diagonalization with overlap
     ethr =  4.49E-07,  avg # of iterations =  6.0

     negative rho (up, down):  1.481E+00 0.000E+00

     total cpu time spent up to now is      477.5 secs

     total energy              =   -3718.37584541 Ry
     estimated scf accuracy    <       0.00057248 Ry

     iteration # 38     ecut=    30.00 Ry     beta= 0.40
     Davidson diagonalization with overlap
     ethr =  2.49E-07,  avg # of iterations =  3.0

     negative rho (up, down):  1.496E+00 0.000E+00

     total cpu time spent up to now is      489.8 secs

     total energy              =   -3718.37665100 Ry
     estimated scf accuracy    <       0.00050068 Ry

     iteration # 39     ecut=    30.00 Ry     beta= 0.40
     Davidson diagonalization with overlap
     ethr =  2.18E-07,  avg # of iterations =  2.0

     negative rho (up, down):  1.514E+00 0.000E+00

     total cpu time spent up to now is      501.9 secs

     total energy              =   -3718.37614445 Ry
     estimated scf accuracy    <       0.00020953 Ry

     iteration # 40     ecut=    30.00 Ry     beta= 0.40
     Davidson diagonalization with overlap
     ethr =  9.11E-08,  avg # of iterations =  3.0

     negative rho (up, down):  1.522E+00 0.000E+00

     total cpu time spent up to now is      514.1 secs

     total energy              =   -3718.37733973 Ry
     estimated scf accuracy    <       0.00006236 Ry

     iteration # 41     ecut=    30.00 Ry     beta= 0.40
     Davidson diagonalization with overlap
     ethr =  2.71E-08,  avg # of iterations =  6.0

     negative rho (up, down):  1.532E+00 0.000E+00

     total cpu time spent up to now is      526.4 secs

     total energy              =   -3718.37787430 Ry
     estimated scf accuracy    <       0.00024764 Ry

     iteration # 42     ecut=    30.00 Ry     beta= 0.40
     Davidson diagonalization with overlap
     ethr =  2.71E-08,  avg # of iterations =  6.0

     negative rho (up, down):  1.540E+00 0.000E+00

     total cpu time spent up to now is      538.8 secs

     total energy              =   -3718.37825370 Ry
     estimated scf accuracy    <       0.00009188 Ry

     iteration # 43     ecut=    30.00 Ry     beta= 0.40
     Davidson diagonalization with overlap
     ethr =  2.71E-08,  avg # of iterations =  6.0

     negative rho (up, down):  1.547E+00 0.000E+00

     total cpu time spent up to now is      551.2 secs

     total energy              =   -3718.37852617 Ry
     estimated scf accuracy    <       0.00016522 Ry

     iteration # 44     ecut=    30.00 Ry     beta= 0.40
     Davidson diagonalization with overlap
     ethr =  2.71E-08,  avg # of iterations =  3.0

     negative rho (up, down):  1.552E+00 0.000E+00

     total cpu time spent up to now is      563.4 secs

     total energy              =   -3718.37860207 Ry
     estimated scf accuracy    <       0.00007646 Ry

     iteration # 45     ecut=    30.00 Ry     beta= 0.40
     Davidson diagonalization with overlap
     ethr =  2.71E-08,  avg # of iterations =  3.0

     negative rho (up, down):  1.557E+00 0.000E+00

     total cpu time spent up to now is      575.6 secs

     total energy              =   -3718.37847968 Ry
     estimated scf accuracy    <       0.00022723 Ry

     iteration # 46     ecut=    30.00 Ry     beta= 0.40
     Davidson diagonalization with overlap
     ethr =  2.71E-08,  avg # of iterations =  3.0

     negative rho (up, down):  1.562E+00 0.000E+00

     total cpu time spent up to now is      587.8 secs

     total energy              =   -3718.37812363 Ry
     estimated scf accuracy    <       0.00033707 Ry

     iteration # 47     ecut=    30.00 Ry     beta= 0.40
     Davidson diagonalization with overlap
     ethr =  2.71E-08,  avg # of iterations =  3.0

     negative rho (up, down):  1.566E+00 0.000E+00

     total cpu time spent up to now is      600.0 secs

     total energy              =   -3718.37854850 Ry
     estimated scf accuracy    <       0.00055830 Ry

     iteration # 48     ecut=    30.00 Ry     beta= 0.40
     Davidson diagonalization with overlap
     ethr =  2.71E-08,  avg # of iterations =  3.0

     negative rho (up, down):  1.570E+00 0.000E+00

     total cpu time spent up to now is      612.2 secs

     total energy              =   -3718.37608961 Ry
     estimated scf accuracy    <       0.00046471 Ry

     iteration # 49     ecut=    30.00 Ry     beta= 0.40
     Davidson diagonalization with overlap
     ethr =  2.71E-08,  avg # of iterations =  3.0

     negative rho (up, down):  1.572E+00 0.000E+00

     total cpu time spent up to now is      624.5 secs

     total energy              =   -3718.37619996 Ry
     estimated scf accuracy    <       0.00082457 Ry

     iteration # 50     ecut=    30.00 Ry     beta= 0.40
     Davidson diagonalization with overlap
     ethr =  2.71E-08,  avg # of iterations =  3.0

     negative rho (up, down):  1.575E+00 0.000E+00

     total cpu time spent up to now is      636.7 secs

     total energy              =   -3718.37563466 Ry
     estimated scf accuracy    <       0.00082161 Ry

     iteration # 51     ecut=    30.00 Ry     beta= 0.40
     Davidson diagonalization with overlap
     ethr =  2.71E-08,  avg # of iterations =  3.0

     negative rho (up, down):  1.578E+00 0.000E+00

     total cpu time spent up to now is      648.9 secs

     total energy              =   -3718.37489760 Ry
     estimated scf accuracy    <       0.00095740 Ry

     iteration # 52     ecut=    30.00 Ry     beta= 0.40
     Davidson diagonalization with overlap
     ethr =  2.71E-08,  avg # of iterations =  3.0

     negative rho (up, down):  1.580E+00 0.000E+00

     total cpu time spent up to now is      661.1 secs

     total energy              =   -3718.37371625 Ry
     estimated scf accuracy    <       0.00104519 Ry

     iteration # 53     ecut=    30.00 Ry     beta= 0.40
     Davidson diagonalization with overlap
     ethr =  2.71E-08,  avg # of iterations =  3.0

     negative rho (up, down):  1.582E+00 0.000E+00

     total cpu time spent up to now is      673.3 secs

     total energy              =   -3718.37239040 Ry
     estimated scf accuracy    <       0.00123785 Ry

     iteration # 54     ecut=    30.00 Ry     beta= 0.40
     Davidson diagonalization with overlap
     ethr =  2.71E-08,  avg # of iterations =  3.0

     negative rho (up, down):  1.582E+00 0.000E+00

     total cpu time spent up to now is      685.5 secs

     total energy              =   -3718.37476840 Ry
     estimated scf accuracy    <       0.00146085 Ry

     iteration # 55     ecut=    30.00 Ry     beta= 0.40
     Davidson diagonalization with overlap
     ethr =  2.71E-08,  avg # of iterations =  7.0

     negative rho (up, down):  1.587E+00 0.000E+00

     total cpu time spent up to now is      697.9 secs

     total energy              =   -3718.37088820 Ry
     estimated scf accuracy    <       0.00181933 Ry

     iteration # 56     ecut=    30.00 Ry     beta= 0.40
     Davidson diagonalization with overlap
     ethr =  2.71E-08,  avg # of iterations =  9.0

     negative rho (up, down):  1.588E+00 0.000E+00

     total cpu time spent up to now is      710.3 secs

     total energy              =   -3718.37023847 Ry
     estimated scf accuracy    <       0.00224065 Ry

     iteration # 57     ecut=    30.00 Ry     beta= 0.40
     Davidson diagonalization with overlap
     ethr =  2.71E-08,  avg # of iterations =  6.0

     negative rho (up, down):  1.593E+00 0.000E+00

     total cpu time spent up to now is      722.5 secs

     total energy              =   -3718.36448528 Ry
     estimated scf accuracy    <       0.00174321 Ry

     iteration # 58     ecut=    30.00 Ry     beta= 0.40
     Davidson diagonalization with overlap
     ethr =  2.71E-08,  avg # of iterations =  7.0

     negative rho (up, down):  1.593E+00 0.000E+00

     total cpu time spent up to now is      734.8 secs

     total energy              =   -3718.36440017 Ry
     estimated scf accuracy    <       0.00324614 Ry

     iteration # 59     ecut=    30.00 Ry     beta= 0.40
     Davidson diagonalization with overlap
     ethr =  2.71E-08,  avg # of iterations =  7.0

     negative rho (up, down):  1.592E+00 0.000E+00

     total cpu time spent up to now is      747.2 secs

     total energy              =   -3718.36455899 Ry
     estimated scf accuracy    <       0.00268462 Ry

     iteration # 60     ecut=    30.00 Ry     beta= 0.40
     Davidson diagonalization with overlap
     ethr =  2.71E-08,  avg # of iterations =  7.0

     negative rho (up, down):  1.593E+00 0.000E+00

     total cpu time spent up to now is      759.5 secs

     total energy              =   -3718.36245265 Ry
     estimated scf accuracy    <       0.00295685 Ry

     iteration # 61     ecut=    30.00 Ry     beta= 0.40
     Davidson diagonalization with overlap
     ethr =  2.71E-08,  avg # of iterations =  6.0

     negative rho (up, down):  1.589E+00 0.000E+00

     total cpu time spent up to now is      771.8 secs

     total energy              =   -3718.36609289 Ry
     estimated scf accuracy    <       0.00291614 Ry

     iteration # 62     ecut=    30.00 Ry     beta= 0.40
     Davidson diagonalization with overlap
     ethr =  2.71E-08,  avg # of iterations =  7.0

     negative rho (up, down):  1.586E+00 0.000E+00

     total cpu time spent up to now is      784.1 secs

     total energy              =   -3718.37134763 Ry
     estimated scf accuracy    <       0.00575549 Ry

     iteration # 63     ecut=    30.00 Ry     beta= 0.40
     Davidson diagonalization with overlap
     ethr =  2.71E-08,  avg # of iterations =  7.0

     negative rho (up, down):  1.585E+00 0.000E+00

     total cpu time spent up to now is      796.5 secs

     total energy              =   -3718.37175018 Ry
     estimated scf accuracy    <       0.00220494 Ry

     iteration # 64     ecut=    30.00 Ry     beta= 0.40
     Davidson diagonalization with overlap
     ethr =  2.71E-08,  avg # of iterations =  9.0

     negative rho (up, down):  1.584E+00 0.000E+00

     total cpu time spent up to now is      809.0 secs

     total energy              =   -3718.37350125 Ry
     estimated scf accuracy    <       0.00173503 Ry

     iteration # 65     ecut=    30.00 Ry     beta= 0.40
     Davidson diagonalization with overlap
     ethr =  2.71E-08,  avg # of iterations =  7.0

     negative rho (up, down):  1.586E+00 0.000E+00

     total cpu time spent up to now is      821.3 secs

     total energy              =   -3718.37218890 Ry
     estimated scf accuracy    <       0.00155903 Ry

     iteration # 66     ecut=    30.00 Ry     beta= 0.40
     Davidson diagonalization with overlap
     ethr =  2.71E-08,  avg # of iterations =  7.0

     negative rho (up, down):  1.579E+00 0.000E+00

     total cpu time spent up to now is      833.6 secs

     total energy              =   -3718.38112146 Ry
     estimated scf accuracy    <       0.00166854 Ry

     iteration # 67     ecut=    30.00 Ry     beta= 0.40
     Davidson diagonalization with overlap
     ethr =  2.71E-08,  avg # of iterations = 11.0

     negative rho (up, down):  1.579E+00 0.000E+00

     total cpu time spent up to now is      846.1 secs

     total energy              =   -3718.38112324 Ry
     estimated scf accuracy    <       0.00262140 Ry

     iteration # 68     ecut=    30.00 Ry     beta= 0.40
     Davidson diagonalization with overlap
     ethr =  2.71E-08,  avg # of iterations = 11.0

     negative rho (up, down):  1.580E+00 0.000E+00

     total cpu time spent up to now is      858.7 secs

     total energy              =   -3718.38147180 Ry
     estimated scf accuracy    <       0.00120595 Ry

     iteration # 69     ecut=    30.00 Ry     beta= 0.40
     Davidson diagonalization with overlap
     ethr =  2.71E-08,  avg # of iterations =  8.0

     negative rho (up, down):  1.580E+00 0.000E+00

     total cpu time spent up to now is      871.1 secs

     total energy              =   -3718.38177068 Ry
     estimated scf accuracy    <       0.00153756 Ry

     iteration # 70     ecut=    30.00 Ry     beta= 0.40
     Davidson diagonalization with overlap
     ethr =  2.71E-08,  avg # of iterations =  8.0

     negative rho (up, down):  1.583E+00 0.000E+00

     total cpu time spent up to now is      883.6 secs

     total energy              =   -3718.38184452 Ry
     estimated scf accuracy    <       0.00120595 Ry

     iteration # 71     ecut=    30.00 Ry     beta= 0.40
     Davidson diagonalization with overlap
     ethr =  2.71E-08,  avg # of iterations =  7.0

     negative rho (up, down):  1.584E+00 0.000E+00

     total cpu time spent up to now is      895.9 secs

     total energy              =   -3718.38192233 Ry
     estimated scf accuracy    <       0.00015556 Ry

     iteration # 72     ecut=    30.00 Ry     beta= 0.40
     Davidson diagonalization with overlap
     ethr =  2.71E-08,  avg # of iterations =  5.0

     negative rho (up, down):  1.585E+00 0.000E+00

     total cpu time spent up to now is      908.1 secs

     total energy              =   -3718.38208817 Ry
     estimated scf accuracy    <       0.00033902 Ry

     iteration # 73     ecut=    30.00 Ry     beta= 0.40
     Davidson diagonalization with overlap
     ethr =  2.71E-08,  avg # of iterations =  2.0

     negative rho (up, down):  1.587E+00 0.000E+00

     total cpu time spent up to now is      920.3 secs

     total energy              =   -3718.38189123 Ry
     estimated scf accuracy    <       0.00013822 Ry

     iteration # 74     ecut=    30.00 Ry     beta= 0.40
     Davidson diagonalization with overlap
     ethr =  2.71E-08,  avg # of iterations =  3.0

     negative rho (up, down):  1.588E+00 0.000E+00

     total cpu time spent up to now is      932.4 secs

     total energy              =   -3718.38214130 Ry
     estimated scf accuracy    <       0.00022046 Ry

     iteration # 75     ecut=    30.00 Ry     beta= 0.40
     Davidson diagonalization with overlap
     ethr =  2.71E-08,  avg # of iterations =  3.0

     negative rho (up, down):  1.590E+00 0.000E+00

     total cpu time spent up to now is      944.7 secs

     total energy              =   -3718.38121721 Ry
     estimated scf accuracy    <       0.00026686 Ry

     iteration # 76     ecut=    30.00 Ry     beta= 0.40
     Davidson diagonalization with overlap
     ethr =  2.71E-08,  avg # of iterations =  3.0

     negative rho (up, down):  1.592E+00 0.000E+00

     total cpu time spent up to now is      957.0 secs

     total energy              =   -3718.38032305 Ry
     estimated scf accuracy    <       0.00038254 Ry

     iteration # 77     ecut=    30.00 Ry     beta= 0.40
     Davidson diagonalization with overlap
     ethr =  2.71E-08,  avg # of iterations =  2.0

     negative rho (up, down):  1.592E+00 0.000E+00

     total cpu time spent up to now is      969.1 secs

     total energy              =   -3718.38097623 Ry
     estimated scf accuracy    <       0.00054009 Ry

     iteration # 78     ecut=    30.00 Ry     beta= 0.40
     Davidson diagonalization with overlap
     ethr =  2.71E-08,  avg # of iterations =  3.0

     negative rho (up, down):  1.591E+00 0.000E+00

     total cpu time spent up to now is      981.4 secs

     total energy              =   -3718.38182693 Ry
     estimated scf accuracy    <       0.00051052 Ry

     iteration # 79     ecut=    30.00 Ry     beta= 0.40
     Davidson diagonalization with overlap
     ethr =  2.71E-08,  avg # of iterations =  3.0

     negative rho (up, down):  1.591E+00 0.000E+00

     total cpu time spent up to now is      993.6 secs

     total energy              =   -3718.38290989 Ry
     estimated scf accuracy    <       0.00033617 Ry

     iteration # 80     ecut=    30.00 Ry     beta= 0.40
     Davidson diagonalization with overlap
     ethr =  2.71E-08,  avg # of iterations =  6.0

     negative rho (up, down):  1.592E+00 0.000E+00

     total cpu time spent up to now is     1006.0 secs

     total energy              =   -3718.38302510 Ry
     estimated scf accuracy    <       0.00006676 Ry

     iteration # 81     ecut=    30.00 Ry     beta= 0.40
     Davidson diagonalization with overlap
     ethr =  2.71E-08,  avg # of iterations =  2.0

     negative rho (up, down):  1.593E+00 0.000E+00

     total cpu time spent up to now is     1018.1 secs

     total energy              =   -3718.38310225 Ry
     estimated scf accuracy    <       0.00007620 Ry

     iteration # 82     ecut=    30.00 Ry     beta= 0.40
     Davidson diagonalization with overlap
     ethr =  2.71E-08,  avg # of iterations =  3.0

     negative rho (up, down):  1.594E+00 0.000E+00

     total cpu time spent up to now is     1030.3 secs

     total energy              =   -3718.38315703 Ry
     estimated scf accuracy    <       0.00004104 Ry

     iteration # 83     ecut=    30.00 Ry     beta= 0.40
     Davidson diagonalization with overlap
     ethr =  1.78E-08,  avg # of iterations =  3.0

     negative rho (up, down):  1.594E+00 0.000E+00

     total cpu time spent up to now is     1042.6 secs

     total energy              =   -3718.38325632 Ry
     estimated scf accuracy    <       0.00005151 Ry

     iteration # 84     ecut=    30.00 Ry     beta= 0.40
     Davidson diagonalization with overlap
     ethr =  1.78E-08,  avg # of iterations =  3.0

     negative rho (up, down):  1.595E+00 0.000E+00

     total cpu time spent up to now is     1054.7 secs

     total energy              =   -3718.38317599 Ry
     estimated scf accuracy    <       0.00001721 Ry

     iteration # 85     ecut=    30.00 Ry     beta= 0.40
     Davidson diagonalization with overlap
     ethr =  7.48E-09,  avg # of iterations =  3.0

     negative rho (up, down):  1.595E+00 0.000E+00

     total cpu time spent up to now is     1067.0 secs

     total energy              =   -3718.38338617 Ry
     estimated scf accuracy    <       0.00005267 Ry

     iteration # 86     ecut=    30.00 Ry     beta= 0.40
     Davidson diagonalization with overlap
     ethr =  7.48E-09,  avg # of iterations =  3.0

     negative rho (up, down):  1.596E+00 0.000E+00

     total cpu time spent up to now is     1079.2 secs

     total energy              =   -3718.38347196 Ry
     estimated scf accuracy    <       0.00001578 Ry

     iteration # 87     ecut=    30.00 Ry     beta= 0.40
     Davidson diagonalization with overlap
     ethr =  6.86E-09,  avg # of iterations =  3.0

     negative rho (up, down):  1.596E+00 0.000E+00

     total cpu time spent up to now is     1091.3 secs

     total energy              =   -3718.38338973 Ry
     estimated scf accuracy    <       0.00002150 Ry

     iteration # 88     ecut=    30.00 Ry     beta= 0.40
     Davidson diagonalization with overlap
     ethr =  6.86E-09,  avg # of iterations =  3.0

     negative rho (up, down):  1.596E+00 0.000E+00

     total cpu time spent up to now is     1103.5 secs

     total energy              =   -3718.38360820 Ry
     estimated scf accuracy    <       0.00007536 Ry

     iteration # 89     ecut=    30.00 Ry     beta= 0.40
     Davidson diagonalization with overlap
     ethr =  6.86E-09,  avg # of iterations =  3.0

     negative rho (up, down):  1.597E+00 0.000E+00

     total cpu time spent up to now is     1115.7 secs

     total energy              =   -3718.38362284 Ry
     estimated scf accuracy    <       0.00001690 Ry

     iteration # 90     ecut=    30.00 Ry     beta= 0.40
     Davidson diagonalization with overlap
     ethr =  6.86E-09,  avg # of iterations =  3.0

     negative rho (up, down):  1.597E+00 0.000E+00

     total cpu time spent up to now is     1127.9 secs

     total energy              =   -3718.38371433 Ry
     estimated scf accuracy    <       0.00005036 Ry

     iteration # 91     ecut=    30.00 Ry     beta= 0.40
     Davidson diagonalization with overlap
     ethr =  6.86E-09,  avg # of iterations =  3.0

     negative rho (up, down):  1.597E+00 0.000E+00

     total cpu time spent up to now is     1140.0 secs

     total energy              =   -3718.38372123 Ry
     estimated scf accuracy    <       0.00003550 Ry

     iteration # 92     ecut=    30.00 Ry     beta= 0.40
     Davidson diagonalization with overlap
     ethr =  6.86E-09,  avg # of iterations =  3.0

     negative rho (up, down):  1.598E+00 0.000E+00

     total cpu time spent up to now is     1152.2 secs

     total energy              =   -3718.38368478 Ry
     estimated scf accuracy    <       0.00005223 Ry

     iteration # 93     ecut=    30.00 Ry     beta= 0.40
     Davidson diagonalization with overlap
     ethr =  6.86E-09,  avg # of iterations =  3.0

     negative rho (up, down):  1.598E+00 0.000E+00

     total cpu time spent up to now is     1164.4 secs

     total energy              =   -3718.38366779 Ry
     estimated scf accuracy    <       0.00007479 Ry

     iteration # 94     ecut=    30.00 Ry     beta= 0.40
     Davidson diagonalization with overlap
     ethr =  6.86E-09,  avg # of iterations =  3.0

     negative rho (up, down):  1.598E+00 0.000E+00

     total cpu time spent up to now is     1176.6 secs

     total energy              =   -3718.38354433 Ry
     estimated scf accuracy    <       0.00008984 Ry

     iteration # 95     ecut=    30.00 Ry     beta= 0.40
     Davidson diagonalization with overlap
     ethr =  6.86E-09,  avg # of iterations =  3.0

     negative rho (up, down):  1.599E+00 0.000E+00

     total cpu time spent up to now is     1188.9 secs

     total energy              =   -3718.38338469 Ry
     estimated scf accuracy    <       0.00012612 Ry

     iteration # 96     ecut=    30.00 Ry     beta= 0.40
     Davidson diagonalization with overlap
     ethr =  6.86E-09,  avg # of iterations =  3.0

     negative rho (up, down):  1.599E+00 0.000E+00

     total cpu time spent up to now is     1201.0 secs

     total energy              =   -3718.38306767 Ry
     estimated scf accuracy    <       0.00015961 Ry

     iteration # 97     ecut=    30.00 Ry     beta= 0.40
     Davidson diagonalization with overlap
     ethr =  6.86E-09,  avg # of iterations =  3.0

     negative rho (up, down):  1.601E+00 0.000E+00

     total cpu time spent up to now is     1213.2 secs

     total energy              =   -3718.38137524 Ry
     estimated scf accuracy    <       0.00021869 Ry

     iteration # 98     ecut=    30.00 Ry     beta= 0.40
     Davidson diagonalization with overlap
     ethr =  6.86E-09,  avg # of iterations =  3.0

     negative rho (up, down):  1.600E+00 0.000E+00

     total cpu time spent up to now is     1225.3 secs

     total energy              =   -3718.38250589 Ry
     estimated scf accuracy    <       0.00046881 Ry

     iteration # 99     ecut=    30.00 Ry     beta= 0.40
     Davidson diagonalization with overlap
     ethr =  6.86E-09,  avg # of iterations =  3.0

     negative rho (up, down):  1.600E+00 0.000E+00

     total cpu time spent up to now is     1237.5 secs

     total energy              =   -3718.38247544 Ry
     estimated scf accuracy    <       0.00032021 Ry

     iteration #100     ecut=    30.00 Ry     beta= 0.40
     Davidson diagonalization with overlap
     ethr =  6.86E-09,  avg # of iterations =  3.0

     negative rho (up, down):  1.599E+00 0.000E+00

     total cpu time spent up to now is     1249.7 secs

     total energy              =   -3718.38285557 Ry
     estimated scf accuracy    <       0.00032641 Ry

     iteration #101     ecut=    30.00 Ry     beta= 0.40
     Davidson diagonalization with overlap
     ethr =  6.86E-09,  avg # of iterations =  3.0

     negative rho (up, down):  1.600E+00 0.000E+00

     total cpu time spent up to now is     1261.9 secs

     total energy              =   -3718.38249316 Ry
     estimated scf accuracy    <       0.00028414 Ry

     iteration #102     ecut=    30.00 Ry     beta= 0.40
     Davidson diagonalization with overlap
     ethr =  6.86E-09,  avg # of iterations =  3.0

     negative rho (up, down):  1.599E+00 0.000E+00

     total cpu time spent up to now is     1274.1 secs

     total energy              =   -3718.38288110 Ry
     estimated scf accuracy    <       0.00033422 Ry

     iteration #103     ecut=    30.00 Ry     beta= 0.40
     Davidson diagonalization with overlap
     ethr =  6.86E-09,  avg # of iterations =  3.0

     negative rho (up, down):  1.598E+00 0.000E+00

     total cpu time spent up to now is     1286.3 secs

     total energy              =   -3718.38364026 Ry
     estimated scf accuracy    <       0.00028346 Ry

     iteration #104     ecut=    30.00 Ry     beta= 0.40
     Davidson diagonalization with overlap
     ethr =  6.86E-09,  avg # of iterations =  3.0

     negative rho (up, down):  1.598E+00 0.000E+00

     total cpu time spent up to now is     1298.5 secs

     total energy              =   -3718.38351694 Ry
     estimated scf accuracy    <       0.00017118 Ry

     iteration #105     ecut=    30.00 Ry     beta= 0.40
     Davidson diagonalization with overlap
     ethr =  6.86E-09,  avg # of iterations =  3.0

     negative rho (up, down):  1.600E+00 0.000E+00

     total cpu time spent up to now is     1310.7 secs

     total energy              =   -3718.38196281 Ry
     estimated scf accuracy    <       0.00019814 Ry

     iteration #106     ecut=    30.00 Ry     beta= 0.40
     Davidson diagonalization with overlap
     ethr =  6.86E-09,  avg # of iterations =  3.0

     negative rho (up, down):  1.597E+00 0.000E+00

     total cpu time spent up to now is     1323.0 secs

     total energy              =   -3718.38453192 Ry
     estimated scf accuracy    <       0.00042758 Ry

     iteration #107     ecut=    30.00 Ry     beta= 0.40
     Davidson diagonalization with overlap
     ethr =  6.86E-09,  avg # of iterations =  6.0

     negative rho (up, down):  1.597E+00 0.000E+00

     total cpu time spent up to now is     1335.4 secs

     total energy              =   -3718.38394351 Ry
     estimated scf accuracy    <       0.00005320 Ry

     iteration #108     ecut=    30.00 Ry     beta= 0.40
     Davidson diagonalization with overlap
     ethr =  6.86E-09,  avg # of iterations =  6.0

     negative rho (up, down):  1.597E+00 0.000E+00

     total cpu time spent up to now is     1347.7 secs

     total energy              =   -3718.38432086 Ry
     estimated scf accuracy    <       0.00015671 Ry

     iteration #109     ecut=    30.00 Ry     beta= 0.40
     Davidson diagonalization with overlap
     ethr =  6.86E-09,  avg # of iterations =  3.0

     negative rho (up, down):  1.597E+00 0.000E+00

     total cpu time spent up to now is     1360.0 secs

     total energy              =   -3718.38450432 Ry
     estimated scf accuracy    <       0.00008759 Ry

     iteration #110     ecut=    30.00 Ry     beta= 0.40
     Davidson diagonalization with overlap
     ethr =  6.86E-09,  avg # of iterations =  3.0

     negative rho (up, down):  1.597E+00 0.000E+00

     total cpu time spent up to now is     1372.1 secs

     total energy              =   -3718.38452122 Ry
     estimated scf accuracy    <       0.00006203 Ry

     iteration #111     ecut=    30.00 Ry     beta= 0.40
     Davidson diagonalization with overlap
     ethr =  6.86E-09,  avg # of iterations =  3.0

     negative rho (up, down):  1.597E+00 0.000E+00

     total cpu time spent up to now is     1384.3 secs

     total energy              =   -3718.38453019 Ry
     estimated scf accuracy    <       0.00005895 Ry

     iteration #112     ecut=    30.00 Ry     beta= 0.40
     Davidson diagonalization with overlap
     ethr =  6.86E-09,  avg # of iterations =  3.0

     negative rho (up, down):  1.598E+00 0.000E+00

     total cpu time spent up to now is     1396.5 secs

     total energy              =   -3718.38413833 Ry
     estimated scf accuracy    <       0.00005527 Ry

     iteration #113     ecut=    30.00 Ry     beta= 0.40
     Davidson diagonalization with overlap
     ethr =  6.86E-09,  avg # of iterations =  3.0

     negative rho (up, down):  1.597E+00 0.000E+00

     total cpu time spent up to now is     1408.7 secs

     total energy              =   -3718.38470747 Ry
     estimated scf accuracy    <       0.00012461 Ry

     iteration #114     ecut=    30.00 Ry     beta= 0.40
     Davidson diagonalization with overlap
     ethr =  6.86E-09,  avg # of iterations =  3.0

     negative rho (up, down):  1.598E+00 0.000E+00

     total cpu time spent up to now is     1421.0 secs

     total energy              =   -3718.38475706 Ry
     estimated scf accuracy    <       0.00004288 Ry

     iteration #115     ecut=    30.00 Ry     beta= 0.40
     Davidson diagonalization with overlap
     ethr =  6.86E-09,  avg # of iterations =  3.0

     negative rho (up, down):  1.598E+00 0.000E+00

     total cpu time spent up to now is     1433.2 secs

     total energy              =   -3718.38475912 Ry
     estimated scf accuracy    <       0.00002007 Ry

     iteration #116     ecut=    30.00 Ry     beta= 0.40
     Davidson diagonalization with overlap
     ethr =  6.86E-09,  avg # of iterations =  3.0

     negative rho (up, down):  1.598E+00 0.000E+00

     total cpu time spent up to now is     1445.3 secs

     total energy              =   -3718.38479161 Ry
     estimated scf accuracy    <       0.00002137 Ry

     iteration #117     ecut=    30.00 Ry     beta= 0.40
     Davidson diagonalization with overlap
     ethr =  6.86E-09,  avg # of iterations =  3.0

     negative rho (up, down):  1.598E+00 0.000E+00

     total cpu time spent up to now is     1457.5 secs

     total energy              =   -3718.38477799 Ry
     estimated scf accuracy    <       0.00001773 Ry

     iteration #118     ecut=    30.00 Ry     beta= 0.40
     Davidson diagonalization with overlap
     ethr =  6.86E-09,  avg # of iterations =  3.0

     negative rho (up, down):  1.598E+00 0.000E+00

     total cpu time spent up to now is     1469.7 secs

     total energy              =   -3718.38467950 Ry
     estimated scf accuracy    <       0.00002530 Ry

     iteration #119     ecut=    30.00 Ry     beta= 0.40
     Davidson diagonalization with overlap
     ethr =  6.86E-09,  avg # of iterations =  3.0

     negative rho (up, down):  1.598E+00 0.000E+00

     total cpu time spent up to now is     1481.9 secs

     total energy              =   -3718.38470606 Ry
     estimated scf accuracy    <       0.00004816 Ry

     iteration #120     ecut=    30.00 Ry     beta= 0.40
     Davidson diagonalization with overlap
     ethr =  6.86E-09,  avg # of iterations =  3.0

     negative rho (up, down):  1.598E+00 0.000E+00

     total cpu time spent up to now is     1494.1 secs

     total energy              =   -3718.38479518 Ry
     estimated scf accuracy    <       0.00004656 Ry

     iteration #121     ecut=    30.00 Ry     beta= 0.40
     Davidson diagonalization with overlap
     ethr =  6.86E-09,  avg # of iterations =  3.0

     negative rho (up, down):  1.598E+00 0.000E+00

     total cpu time spent up to now is     1506.3 secs

     total energy              =   -3718.38487149 Ry
     estimated scf accuracy    <       0.00003322 Ry

     iteration #122     ecut=    30.00 Ry     beta= 0.40
     Davidson diagonalization with overlap
     ethr =  6.86E-09,  avg # of iterations =  2.0

     negative rho (up, down):  1.598E+00 0.000E+00

     total cpu time spent up to now is     1518.5 secs

     total energy              =   -3718.38492229 Ry
     estimated scf accuracy    <       0.00000374 Ry

     iteration #123     ecut=    30.00 Ry     beta= 0.40
     Davidson diagonalization with overlap
     ethr =  1.63E-09,  avg # of iterations =  3.0

     negative rho (up, down):  1.598E+00 0.000E+00

     total cpu time spent up to now is     1530.8 secs

     total energy              =   -3718.38493928 Ry
     estimated scf accuracy    <       0.00000255 Ry

     iteration #124     ecut=    30.00 Ry     beta= 0.40
     Davidson diagonalization with overlap
     ethr =  1.11E-09,  avg # of iterations =  3.0

     negative rho (up, down):  1.598E+00 0.000E+00

     total cpu time spent up to now is     1543.0 secs

     total energy              =   -3718.38492439 Ry
     estimated scf accuracy    <       0.00000648 Ry

     iteration #125     ecut=    30.00 Ry     beta= 0.40
     Davidson diagonalization with overlap
     ethr =  1.11E-09,  avg # of iterations =  3.0

     negative rho (up, down):  1.598E+00 0.000E+00

     total cpu time spent up to now is     1555.1 secs

     total energy              =   -3718.38491652 Ry
     estimated scf accuracy    <       0.00001590 Ry

     iteration #126     ecut=    30.00 Ry     beta= 0.40
     Davidson diagonalization with overlap
     ethr =  1.11E-09,  avg # of iterations =  3.0

     negative rho (up, down):  1.598E+00 0.000E+00

     total cpu time spent up to now is     1567.3 secs

     total energy              =   -3718.38493981 Ry
     estimated scf accuracy    <       0.00002120 Ry

     iteration #127     ecut=    30.00 Ry     beta= 0.40
     Davidson diagonalization with overlap
     ethr =  1.11E-09,  avg # of iterations =  3.0

     negative rho (up, down):  1.598E+00 0.000E+00

     total cpu time spent up to now is     1579.5 secs

     total energy              =   -3718.38499935 Ry
     estimated scf accuracy    <       0.00001881 Ry

     iteration #128     ecut=    30.00 Ry     beta= 0.40
     Davidson diagonalization with overlap
     ethr =  1.11E-09,  avg # of iterations =  5.0

     negative rho (up, down):  1.598E+00 0.000E+00

     total cpu time spent up to now is     1591.9 secs

     total energy              =   -3718.38500445 Ry
     estimated scf accuracy    <       0.00000379 Ry

     iteration #129     ecut=    30.00 Ry     beta= 0.40
     Davidson diagonalization with overlap
     ethr =  1.11E-09,  avg # of iterations =  3.0

     negative rho (up, down):  1.598E+00 0.000E+00

     total cpu time spent up to now is     1604.0 secs

     total energy              =   -3718.38500558 Ry
     estimated scf accuracy    <       0.00000855 Ry

     iteration #130     ecut=    30.00 Ry     beta= 0.40
     Davidson diagonalization with overlap
     ethr =  1.11E-09,  avg # of iterations =  3.0

     negative rho (up, down):  1.598E+00 0.000E+00

     total cpu time spent up to now is     1616.2 secs

     total energy              =   -3718.38500175 Ry
     estimated scf accuracy    <       0.00001189 Ry

     iteration #131     ecut=    30.00 Ry     beta= 0.40
     Davidson diagonalization with overlap
     ethr =  1.11E-09,  avg # of iterations =  3.0

     negative rho (up, down):  1.598E+00 0.000E+00

     total cpu time spent up to now is     1628.4 secs

     total energy              =   -3718.38493603 Ry
     estimated scf accuracy    <       0.00001570 Ry

     iteration #132     ecut=    30.00 Ry     beta= 0.40
     Davidson diagonalization with overlap
     ethr =  1.11E-09,  avg # of iterations =  3.0

     negative rho (up, down):  1.598E+00 0.000E+00

     total cpu time spent up to now is     1640.6 secs

     total energy              =   -3718.38484509 Ry
     estimated scf accuracy    <       0.00003068 Ry

     iteration #133     ecut=    30.00 Ry     beta= 0.40
     Davidson diagonalization with overlap
     ethr =  1.11E-09,  avg # of iterations =  3.0

     negative rho (up, down):  1.598E+00 0.000E+00

     total cpu time spent up to now is     1652.8 secs

     total energy              =   -3718.38466892 Ry
     estimated scf accuracy    <       0.00004779 Ry

     iteration #134     ecut=    30.00 Ry     beta= 0.40
     Davidson diagonalization with overlap
     ethr =  1.11E-09,  avg # of iterations =  3.0

     negative rho (up, down):  1.598E+00 0.000E+00

     total cpu time spent up to now is     1665.0 secs

     total energy              =   -3718.38473483 Ry
     estimated scf accuracy    <       0.00007624 Ry

     iteration #135     ecut=    30.00 Ry     beta= 0.40
     Davidson diagonalization with overlap
     ethr =  1.11E-09,  avg # of iterations =  3.0

     negative rho (up, down):  1.598E+00 0.000E+00

     total cpu time spent up to now is     1677.2 secs

     total energy              =   -3718.38457426 Ry
     estimated scf accuracy    <       0.00006883 Ry

     iteration #136     ecut=    30.00 Ry     beta= 0.40
     Davidson diagonalization with overlap
     ethr =  1.11E-09,  avg # of iterations =  3.0

     negative rho (up, down):  1.598E+00 0.000E+00

     total cpu time spent up to now is     1689.3 secs

     total energy              =   -3718.38401348 Ry
     estimated scf accuracy    <       0.00009270 Ry

     iteration #137     ecut=    30.00 Ry     beta= 0.40
     Davidson diagonalization with overlap
     ethr =  1.11E-09,  avg # of iterations =  3.0

     negative rho (up, down):  1.598E+00 0.000E+00

     total cpu time spent up to now is     1701.6 secs

     total energy              =   -3718.38379952 Ry
     estimated scf accuracy    <       0.00017148 Ry

     iteration #138     ecut=    30.00 Ry     beta= 0.40
     Davidson diagonalization with overlap
     ethr =  1.11E-09,  avg # of iterations =  3.0

     negative rho (up, down):  1.598E+00 0.000E+00

     total cpu time spent up to now is     1713.8 secs

     total energy              =   -3718.38456519 Ry
     estimated scf accuracy    <       0.00020039 Ry

     iteration #139     ecut=    30.00 Ry     beta= 0.40
     Davidson diagonalization with overlap
     ethr =  1.11E-09,  avg # of iterations =  3.0

     negative rho (up, down):  1.598E+00 0.000E+00

     total cpu time spent up to now is     1726.0 secs

     total energy              =   -3718.38489138 Ry
     estimated scf accuracy    <       0.00009908 Ry

     iteration #140     ecut=    30.00 Ry     beta= 0.40
     Davidson diagonalization with overlap
     ethr =  1.11E-09,  avg # of iterations =  3.0

     negative rho (up, down):  1.598E+00 0.000E+00

     total cpu time spent up to now is     1738.2 secs

     total energy              =   -3718.38490001 Ry
     estimated scf accuracy    <       0.00005229 Ry

     iteration #141     ecut=    30.00 Ry     beta= 0.40
     Davidson diagonalization with overlap
     ethr =  1.11E-09,  avg # of iterations =  3.0

     negative rho (up, down):  1.598E+00 0.000E+00

     total cpu time spent up to now is     1750.4 secs

     total energy              =   -3718.38496083 Ry
     estimated scf accuracy    <       0.00005251 Ry

     iteration #142     ecut=    30.00 Ry     beta= 0.40
     Davidson diagonalization with overlap
     ethr =  1.11E-09,  avg # of iterations =  3.0

     negative rho (up, down):  1.598E+00 0.000E+00

     total cpu time spent up to now is     1762.6 secs

     total energy              =   -3718.38503081 Ry
     estimated scf accuracy    <       0.00004475 Ry

     iteration #143     ecut=    30.00 Ry     beta= 0.40
     Davidson diagonalization with overlap
     ethr =  1.11E-09,  avg # of iterations =  3.0

     negative rho (up, down):  1.598E+00 0.000E+00

     total cpu time spent up to now is     1774.9 secs

     total energy              =   -3718.38511306 Ry
     estimated scf accuracy    <       0.00003756 Ry

     iteration #144     ecut=    30.00 Ry     beta= 0.40
     Davidson diagonalization with overlap
     ethr =  1.11E-09,  avg # of iterations =  3.0

     negative rho (up, down):  1.598E+00 0.000E+00

     total cpu time spent up to now is     1787.1 secs

     total energy              =   -3718.38508336 Ry
     estimated scf accuracy    <       0.00002280 Ry

     iteration #145     ecut=    30.00 Ry     beta= 0.40
     Davidson diagonalization with overlap
     ethr =  1.11E-09,  avg # of iterations =  3.0

     negative rho (up, down):  1.598E+00 0.000E+00

     total cpu time spent up to now is     1799.2 secs

     total energy              =   -3718.38516479 Ry
     estimated scf accuracy    <       0.00002945 Ry

     iteration #146     ecut=    30.00 Ry     beta= 0.40
     Davidson diagonalization with overlap
     ethr =  1.11E-09,  avg # of iterations =  3.0

     negative rho (up, down):  1.598E+00 0.000E+00

     total cpu time spent up to now is     1811.4 secs

     total energy              =   -3718.38515216 Ry
     estimated scf accuracy    <       0.00001989 Ry

     iteration #147     ecut=    30.00 Ry     beta= 0.40
     Davidson diagonalization with overlap
     ethr =  1.11E-09,  avg # of iterations =  3.0

     negative rho (up, down):  1.598E+00 0.000E+00

     total cpu time spent up to now is     1823.6 secs

     total energy              =   -3718.38511570 Ry
     estimated scf accuracy    <       0.00002184 Ry

     iteration #148     ecut=    30.00 Ry     beta= 0.40
     Davidson diagonalization with overlap
     ethr =  1.11E-09,  avg # of iterations =  3.0

     negative rho (up, down):  1.598E+00 0.000E+00

     total cpu time spent up to now is     1835.7 secs

     total energy              =   -3718.38507015 Ry
     estimated scf accuracy    <       0.00002935 Ry

     iteration #149     ecut=    30.00 Ry     beta= 0.40
     Davidson diagonalization with overlap
     ethr =  1.11E-09,  avg # of iterations =  3.0

     negative rho (up, down):  1.598E+00 0.000E+00

     total cpu time spent up to now is     1848.0 secs

     total energy              =   -3718.38501192 Ry
     estimated scf accuracy    <       0.00003903 Ry

     iteration #150     ecut=    30.00 Ry     beta= 0.40
     Davidson diagonalization with overlap
     ethr =  1.11E-09,  avg # of iterations =  3.0

     negative rho (up, down):  1.598E+00 0.000E+00

     total cpu time spent up to now is     1860.1 secs

     total energy              =   -3718.38494126 Ry
     estimated scf accuracy    <       0.00004783 Ry

     iteration #151     ecut=    30.00 Ry     beta= 0.40
     Davidson diagonalization with overlap
     ethr =  1.11E-09,  avg # of iterations =  3.0

     negative rho (up, down):  1.598E+00 0.000E+00

     total cpu time spent up to now is     1872.3 secs

     total energy              =   -3718.38492005 Ry
     estimated scf accuracy    <       0.00005935 Ry

     iteration #152     ecut=    30.00 Ry     beta= 0.40
     Davidson diagonalization with overlap
     ethr =  1.11E-09,  avg # of iterations =  3.0

     negative rho (up, down):  1.598E+00 0.000E+00

     total cpu time spent up to now is     1884.4 secs

     total energy              =   -3718.38482554 Ry
     estimated scf accuracy    <       0.00006324 Ry

     iteration #153     ecut=    30.00 Ry     beta= 0.40
     Davidson diagonalization with overlap
     ethr =  1.11E-09,  avg # of iterations =  3.0

     negative rho (up, down):  1.599E+00 0.000E+00

     total cpu time spent up to now is     1896.6 secs

     total energy              =   -3718.38477067 Ry
     estimated scf accuracy    <       0.00007755 Ry

     iteration #154     ecut=    30.00 Ry     beta= 0.40
     Davidson diagonalization with overlap
     ethr =  1.11E-09,  avg # of iterations =  3.0

     negative rho (up, down):  1.599E+00 0.000E+00

     total cpu time spent up to now is     1908.8 secs

     total energy              =   -3718.38474629 Ry
     estimated scf accuracy    <       0.00008910 Ry

     iteration #155     ecut=    30.00 Ry     beta= 0.40
     Davidson diagonalization with overlap
     ethr =  1.11E-09,  avg # of iterations =  3.0

     negative rho (up, down):  1.598E+00 0.000E+00

     total cpu time spent up to now is     1921.0 secs

     total energy              =   -3718.38466302 Ry
     estimated scf accuracy    <       0.00009366 Ry

     iteration #156     ecut=    30.00 Ry     beta= 0.40
     Davidson diagonalization with overlap
     ethr =  1.11E-09,  avg # of iterations =  3.0

     negative rho (up, down):  1.598E+00 0.000E+00

     total cpu time spent up to now is     1933.2 secs

     total energy              =   -3718.38466286 Ry
     estimated scf accuracy    <       0.00010815 Ry

     iteration #157     ecut=    30.00 Ry     beta= 0.40
     Davidson diagonalization with overlap
     ethr =  1.11E-09,  avg # of iterations =  3.0

     negative rho (up, down):  1.599E+00 0.000E+00

     total cpu time spent up to now is     1945.6 secs

     total energy              =   -3718.38458517 Ry
     estimated scf accuracy    <       0.00011194 Ry

     iteration #158     ecut=    30.00 Ry     beta= 0.40
     Davidson diagonalization with overlap
     ethr =  1.11E-09,  avg # of iterations =  6.0

     negative rho (up, down):  1.599E+00 0.000E+00

     total cpu time spent up to now is     1957.9 secs

     total energy              =   -3718.38449915 Ry
     estimated scf accuracy    <       0.00012438 Ry

     iteration #159     ecut=    30.00 Ry     beta= 0.40
     Davidson diagonalization with overlap
     ethr =  1.11E-09,  avg # of iterations =  3.0

     negative rho (up, down):  1.599E+00 0.000E+00

     total cpu time spent up to now is     1970.1 secs

     total energy              =   -3718.38455149 Ry
     estimated scf accuracy    <       0.00013990 Ry

     iteration #160     ecut=    30.00 Ry     beta= 0.40
     Davidson diagonalization with overlap
     ethr =  1.11E-09,  avg # of iterations =  9.0

     negative rho (up, down):  1.598E+00 0.000E+00

     total cpu time spent up to now is     1982.7 secs

     total energy              =   -3718.38417958 Ry
     estimated scf accuracy    <       0.00018186 Ry

     iteration #161     ecut=    30.00 Ry     beta= 0.40
     Davidson diagonalization with overlap
     ethr =  1.11E-09,  avg # of iterations = 12.0

     negative rho (up, down):  1.599E+00 0.000E+00

     total cpu time spent up to now is     1995.3 secs

     total energy              =   -3718.38354254 Ry
     estimated scf accuracy    <       0.00039514 Ry

     iteration #162     ecut=    30.00 Ry     beta= 0.40
     Davidson diagonalization with overlap
     ethr =  1.11E-09,  avg # of iterations = 12.0

     negative rho (up, down):  1.599E+00 0.000E+00

     total cpu time spent up to now is     2008.0 secs

     total energy              =   -3718.38213989 Ry
     estimated scf accuracy    <       0.00050488 Ry

     iteration #163     ecut=    30.00 Ry     beta= 0.40
     Davidson diagonalization with overlap
     ethr =  1.11E-09,  avg # of iterations = 11.0

     negative rho (up, down):  1.599E+00 0.000E+00

     total cpu time spent up to now is     2020.7 secs

     total energy              =   -3718.38286989 Ry
     estimated scf accuracy    <       0.00052415 Ry

     iteration #164     ecut=    30.00 Ry     beta= 0.40
     Davidson diagonalization with overlap
     ethr =  1.11E-09,  avg # of iterations =  7.0

     negative rho (up, down):  1.598E+00 0.000E+00

     total cpu time spent up to now is     2033.2 secs

     total energy              =   -3718.38424408 Ry
     estimated scf accuracy    <       0.00049466 Ry

     iteration #165     ecut=    30.00 Ry     beta= 0.40
     Davidson diagonalization with overlap
     ethr =  1.11E-09,  avg # of iterations = 12.0

     negative rho (up, down):  1.598E+00 0.000E+00

     total cpu time spent up to now is     2045.8 secs

     total energy              =   -3718.38487615 Ry
     estimated scf accuracy    <       0.00051546 Ry

     iteration #166     ecut=    30.00 Ry     beta= 0.40
     Davidson diagonalization with overlap
     ethr =  1.11E-09,  avg # of iterations = 14.0

     negative rho (up, down):  1.598E+00 0.000E+00

     total cpu time spent up to now is     2058.6 secs

     total energy              =   -3718.38506123 Ry
     estimated scf accuracy    <       0.00033860 Ry

     iteration #167     ecut=    30.00 Ry     beta= 0.40
     Davidson diagonalization with overlap
     ethr =  1.11E-09,  avg # of iterations = 12.0

     negative rho (up, down):  1.598E+00 0.000E+00

     total cpu time spent up to now is     2071.2 secs

     total energy              =   -3718.38530545 Ry
     estimated scf accuracy    <       0.00026771 Ry

     iteration #168     ecut=    30.00 Ry     beta= 0.40
     Davidson diagonalization with overlap
     ethr =  1.11E-09,  avg # of iterations = 12.0

     negative rho (up, down):  1.598E+00 0.000E+00

     total cpu time spent up to now is     2083.8 secs

     total energy              =   -3718.38541602 Ry
     estimated scf accuracy    <       0.00024979 Ry

     iteration #169     ecut=    30.00 Ry     beta= 0.40
     Davidson diagonalization with overlap
     ethr =  1.11E-09,  avg # of iterations = 12.0

     negative rho (up, down):  1.598E+00 0.000E+00

     total cpu time spent up to now is     2096.3 secs

     total energy              =   -3718.38543090 Ry
     estimated scf accuracy    <       0.00026094 Ry

     iteration #170     ecut=    30.00 Ry     beta= 0.40
     Davidson diagonalization with overlap
     ethr =  1.11E-09,  avg # of iterations = 12.0

     negative rho (up, down):  1.598E+00 0.000E+00

     total cpu time spent up to now is     2108.8 secs

     total energy              =   -3718.38545921 Ry
     estimated scf accuracy    <       0.00004007 Ry

     iteration #171     ecut=    30.00 Ry     beta= 0.40
     Davidson diagonalization with overlap
     ethr =  1.11E-09,  avg # of iterations =  8.0

     negative rho (up, down):  1.599E+00 0.000E+00

     total cpu time spent up to now is     2121.1 secs

     total energy              =   -3718.38546841 Ry
     estimated scf accuracy    <       0.00004326 Ry

     iteration #172     ecut=    30.00 Ry     beta= 0.40
     Davidson diagonalization with overlap
     ethr =  1.11E-09,  avg # of iterations =  7.0

     negative rho (up, down):  1.599E+00 0.000E+00

     total cpu time spent up to now is     2133.5 secs

     total energy              =   -3718.38548923 Ry
     estimated scf accuracy    <       0.00000936 Ry

     iteration #173     ecut=    30.00 Ry     beta= 0.40
     Davidson diagonalization with overlap
     ethr =  1.11E-09,  avg # of iterations =  6.0

     negative rho (up, down):  1.599E+00 0.000E+00

     total cpu time spent up to now is     2145.8 secs

     total energy              =   -3718.38549524 Ry
     estimated scf accuracy    <       0.00003076 Ry

     iteration #174     ecut=    30.00 Ry     beta= 0.40
     Davidson diagonalization with overlap
     ethr =  1.11E-09,  avg # of iterations =  6.0

     negative rho (up, down):  1.599E+00 0.000E+00

     total cpu time spent up to now is     2158.1 secs

     total energy              =   -3718.38550557 Ry
     estimated scf accuracy    <       0.00000606 Ry

     iteration #175     ecut=    30.00 Ry     beta= 0.40
     Davidson diagonalization with overlap
     ethr =  1.11E-09,  avg # of iterations =  6.0

     negative rho (up, down):  1.599E+00 0.000E+00

     total cpu time spent up to now is     2170.3 secs

     total energy              =   -3718.38550157 Ry
     estimated scf accuracy    <       0.00000825 Ry

     iteration #176     ecut=    30.00 Ry     beta= 0.40
     Davidson diagonalization with overlap
     ethr =  1.11E-09,  avg # of iterations =  7.0

     negative rho (up, down):  1.599E+00 0.000E+00

     total cpu time spent up to now is     2182.7 secs

     total energy              =   -3718.38550780 Ry
     estimated scf accuracy    <       0.00000626 Ry

     iteration #177     ecut=    30.00 Ry     beta= 0.40
     Davidson diagonalization with overlap
     ethr =  1.11E-09,  avg # of iterations =  6.0

     negative rho (up, down):  1.599E+00 0.000E+00

     total cpu time spent up to now is     2194.9 secs

     total energy              =   -3718.38552431 Ry
     estimated scf accuracy    <       0.00000839 Ry

     iteration #178     ecut=    30.00 Ry     beta= 0.40
     Davidson diagonalization with overlap
     ethr =  1.11E-09,  avg # of iterations =  3.0

     negative rho (up, down):  1.599E+00 0.000E+00

     total cpu time spent up to now is     2207.2 secs

     total energy              =   -3718.38554231 Ry
     estimated scf accuracy    <       0.00000110 Ry

     iteration #179     ecut=    30.00 Ry     beta= 0.40
     Davidson diagonalization with overlap
     ethr =  4.80E-10,  avg # of iterations =  6.0

     negative rho (up, down):  1.599E+00 0.000E+00

     total cpu time spent up to now is     2219.5 secs

     total energy              =   -3718.38555526 Ry
     estimated scf accuracy    <       0.00000125 Ry

     iteration #180     ecut=    30.00 Ry     beta= 0.40
     Davidson diagonalization with overlap
     ethr =  4.80E-10,  avg # of iterations =  6.0

     negative rho (up, down):  1.599E+00 0.000E+00

     total cpu time spent up to now is     2231.9 secs

     total energy              =   -3718.38556614 Ry
     estimated scf accuracy    <       0.00000185 Ry

     iteration #181     ecut=    30.00 Ry     beta= 0.40
     Davidson diagonalization with overlap
     ethr =  4.80E-10,  avg # of iterations =  3.0

     negative rho (up, down):  1.599E+00 0.000E+00

     total cpu time spent up to now is     2244.1 secs

     total energy              =   -3718.38556698 Ry
     estimated scf accuracy    <       0.00000312 Ry

     iteration #182     ecut=    30.00 Ry     beta= 0.40
     Davidson diagonalization with overlap
     ethr =  4.80E-10,  avg # of iterations =  3.0

     negative rho (up, down):  1.599E+00 0.000E+00

     total cpu time spent up to now is     2256.3 secs

     total energy              =   -3718.38556774 Ry
     estimated scf accuracy    <       0.00000925 Ry

     iteration #183     ecut=    30.00 Ry     beta= 0.40
     Davidson diagonalization with overlap
     ethr =  4.80E-10,  avg # of iterations =  3.0

     negative rho (up, down):  1.599E+00 0.000E+00

     total cpu time spent up to now is     2268.6 secs

     total energy              =   -3718.38554168 Ry
     estimated scf accuracy    <       0.00001179 Ry

     iteration #184     ecut=    30.00 Ry     beta= 0.40
     Davidson diagonalization with overlap
     ethr =  4.80E-10,  avg # of iterations =  3.0

     negative rho (up, down):  1.599E+00 0.000E+00

     total cpu time spent up to now is     2280.8 secs

     total energy              =   -3718.38553016 Ry
     estimated scf accuracy    <       0.00001884 Ry

     iteration #185     ecut=    30.00 Ry     beta= 0.40
     Davidson diagonalization with overlap
     ethr =  4.80E-10,  avg # of iterations =  3.0

     negative rho (up, down):  1.599E+00 0.000E+00

     total cpu time spent up to now is     2293.0 secs

     total energy              =   -3718.38542135 Ry
     estimated scf accuracy    <       0.00002185 Ry

     iteration #186     ecut=    30.00 Ry     beta= 0.40
     Davidson diagonalization with overlap
     ethr =  4.80E-10,  avg # of iterations =  3.0

     negative rho (up, down):  1.599E+00 0.000E+00

     total cpu time spent up to now is     2305.2 secs

     total energy              =   -3718.38539017 Ry
     estimated scf accuracy    <       0.00003797 Ry

     iteration #187     ecut=    30.00 Ry     beta= 0.40
     Davidson diagonalization with overlap
     ethr =  4.80E-10,  avg # of iterations =  3.0

     negative rho (up, down):  1.599E+00 0.000E+00

     total cpu time spent up to now is     2317.4 secs

     total energy              =   -3718.38520405 Ry
     estimated scf accuracy    <       0.00004383 Ry

     iteration #188     ecut=    30.00 Ry     beta= 0.40
     Davidson diagonalization with overlap
     ethr =  4.80E-10,  avg # of iterations =  3.0

     negative rho (up, down):  1.599E+00 0.000E+00

     total cpu time spent up to now is     2329.6 secs

     total energy              =   -3718.38508657 Ry
     estimated scf accuracy    <       0.00007113 Ry

     iteration #189     ecut=    30.00 Ry     beta= 0.40
     Davidson diagonalization with overlap
     ethr =  4.80E-10,  avg # of iterations =  3.0

     negative rho (up, down):  1.599E+00 0.000E+00

     total cpu time spent up to now is     2341.8 secs

     total energy              =   -3718.38493924 Ry
     estimated scf accuracy    <       0.00008849 Ry

     iteration #190     ecut=    30.00 Ry     beta= 0.40
     Davidson diagonalization with overlap
     ethr =  4.80E-10,  avg # of iterations =  5.0

     negative rho (up, down):  1.599E+00 0.000E+00

     total cpu time spent up to now is     2354.2 secs

     total energy              =   -3718.38535857 Ry
     estimated scf accuracy    <       0.00011027 Ry

     iteration #191     ecut=    30.00 Ry     beta= 0.40
     Davidson diagonalization with overlap
     ethr =  4.80E-10,  avg # of iterations =  5.0

     negative rho (up, down):  1.598E+00 0.000E+00

     total cpu time spent up to now is     2366.5 secs

     total energy              =   -3718.38541825 Ry
     estimated scf accuracy    <       0.00006167 Ry

     iteration #192     ecut=    30.00 Ry     beta= 0.40
     Davidson diagonalization with overlap
     ethr =  4.80E-10,  avg # of iterations =  6.0

     negative rho (up, down):  1.598E+00 0.000E+00

     total cpu time spent up to now is     2378.8 secs

     total energy              =   -3718.38550850 Ry
     estimated scf accuracy    <       0.00005363 Ry

     iteration #193     ecut=    30.00 Ry     beta= 0.40
     Davidson diagonalization with overlap
     ethr =  4.80E-10,  avg # of iterations =  6.0

     negative rho (up, down):  1.598E+00 0.000E+00

     total cpu time spent up to now is     2391.3 secs

     total energy              =   -3718.38555372 Ry
     estimated scf accuracy    <       0.00003576 Ry

     iteration #194     ecut=    30.00 Ry     beta= 0.40
     Davidson diagonalization with overlap
     ethr =  4.80E-10,  avg # of iterations =  3.0

     negative rho (up, down):  1.598E+00 0.000E+00

     total cpu time spent up to now is     2403.5 secs

     total energy              =   -3718.38558123 Ry
     estimated scf accuracy    <       0.00003009 Ry

     iteration #195     ecut=    30.00 Ry     beta= 0.40
     Davidson diagonalization with overlap
     ethr =  4.80E-10,  avg # of iterations =  3.0

     negative rho (up, down):  1.598E+00 0.000E+00

     total cpu time spent up to now is     2415.7 secs

     total energy              =   -3718.38550009 Ry
     estimated scf accuracy    <       0.00002695 Ry

     iteration #196     ecut=    30.00 Ry     beta= 0.40
     Davidson diagonalization with overlap
     ethr =  4.80E-10,  avg # of iterations =  3.0

     negative rho (up, down):  1.598E+00 0.000E+00

     total cpu time spent up to now is     2428.0 secs

     total energy              =   -3718.38567401 Ry
     estimated scf accuracy    <       0.00004068 Ry

     iteration #197     ecut=    30.00 Ry     beta= 0.40
     Davidson diagonalization with overlap
     ethr =  4.80E-10,  avg # of iterations =  5.0

     negative rho (up, down):  1.598E+00 0.000E+00

     total cpu time spent up to now is     2440.2 secs

     total energy              =   -3718.38571935 Ry
     estimated scf accuracy    <       0.00001594 Ry

     iteration #198     ecut=    30.00 Ry     beta= 0.40
     Davidson diagonalization with overlap
     ethr =  4.80E-10,  avg # of iterations =  5.0

     negative rho (up, down):  1.598E+00 0.000E+00

     total cpu time spent up to now is     2452.5 secs

     total energy              =   -3718.38572939 Ry
     estimated scf accuracy    <       0.00000741 Ry

     iteration #199     ecut=    30.00 Ry     beta= 0.40
     Davidson diagonalization with overlap
     ethr =  4.80E-10,  avg # of iterations =  3.0

     negative rho (up, down):  1.598E+00 0.000E+00

     total cpu time spent up to now is     2464.8 secs

     total energy              =   -3718.38572361 Ry
     estimated scf accuracy    <       0.00000566 Ry

     iteration #200     ecut=    30.00 Ry     beta= 0.40
     Davidson diagonalization with overlap
     ethr =  4.80E-10,  avg # of iterations =  3.0

     negative rho (up, down):  1.598E+00 0.000E+00

     total cpu time spent up to now is     2476.9 secs

     total energy              =   -3718.38571483 Ry
     estimated scf accuracy    <       0.00000906 Ry

     End of self-consistent calculation

     convergence NOT achieved after 200 iterations: stopping

     Writing config to output data dir /root/qe_scratch/cand263_A_TiS2_Pb.save/ :
     XML data file, charge density distributed wavefunctions
 
     init_run     :     15.09s CPU     19.45s WALL (       1 calls)
     electrons    :   2006.88s CPU   2456.52s WALL (       1 calls)

     Called by init_run:
     wfcinit      :      0.19s CPU      0.42s WALL (       1 calls)
     potinit      :     14.12s CPU     17.95s WALL (       1 calls)
     hinit0       :      0.54s CPU      0.64s WALL (       1 calls)

     Called by electrons:
     c_bands      :     66.98s CPU     67.24s WALL (     200 calls)
     sum_band     :     18.37s CPU     18.48s WALL (     200 calls)
     v_of_rho     :     15.04s CPU     19.83s WALL (     201 calls)
     newd         :     10.26s CPU     10.75s WALL (     201 calls)
                                       10.75s GPU  (     201 calls)
     PAW_pot      :   1871.68s CPU   2310.90s WALL (     201 calls)
     mix_rho      :      8.26s CPU      9.04s WALL (     200 calls)

     Called by c_bands:
     init_us_2    :      0.46s CPU      0.48s WALL (     401 calls)
     cegterg      :     65.38s CPU     65.56s WALL (     200 calls)

     Called by *egterg:
     cdiaghg      :     10.21s CPU     10.29s WALL (    1138 calls)
                                       10.28s GPU  (    1138 calls)
     h_psi        :     26.45s CPU     26.80s WALL (    1139 calls)
                                       26.79s GPU  (    1139 calls)
     s_psi        :      1.40s CPU      1.40s WALL (    1139 calls)
     g_psi        :      0.01s CPU      0.12s WALL (     938 calls)
                                        0.11s GPU  (     938 calls)

     Called by h_psi:
     h_psi:calbec :      0.11s CPU      7.23s WALL (    1139 calls)
                                        7.23s GPU  (    1139 calls)
     vloc_psi     :     11.59s CPU     11.71s WALL (    1139 calls)
                                       11.71s GPU  (    1139 calls)
     add_vuspsi   :      1.37s CPU      7.74s WALL (    1139 calls)
                                        7.74s GPU  (    1139 calls)

     General routines
     calbec       :      0.12s CPU      0.30s WALL (    1339 calls)
     fft          :     17.98s CPU     24.12s WALL (    2613 calls)
                                        0.42s GPU  (    2412 calls)
     ffts         :      6.14s CPU      7.82s WALL (     401 calls)
                                        0.02s GPU  (     200 calls)
     fftw         :      0.18s CPU     11.31s WALL (   11950 calls)
                                       11.28s GPU  (   11950 calls)
     interpolate  :     25.17s CPU     32.66s WALL (     201 calls)
     davcio       :      0.00s CPU      0.08s WALL (      19 calls)
 
     Parallel routines
 
     PWSCF        :  33m42.97s CPU  41m17.09s WALL

 
   This run was terminated on:   3:54:41   7May2026            

=------------------------------------------------------------------------------=
   JOB DONE.
=------------------------------------------------------------------------------=
Warning: ieee_invalid is signaling
Warning: ieee_divide_by_zero is signaling
Warning: ieee_inexact is signaling
FORTRAN STOP
