--------------------------------------------------------------------------
WARNING: Open MPI tried to bind a process but failed.  This is a
warning only; your job will continue, though performance may
be degraded.

  Local host:        3253031b5b37
  Application name:  /root/qe-7.3.1/bin/pw.x
  Error message:     failed to bind memory
  Location:          ../../../../../orte/mca/rtc/hwloc/rtc_hwloc.c:447

--------------------------------------------------------------------------

     Program PWSCF v.7.3.1 starts on  7May2026 at  3:13:13 

     This program is part of the open-source Quantum ESPRESSO suite
     for quantum simulation of materials; please cite
         "P. Giannozzi et al., J. Phys.:Condens. Matter 21 395502 (2009);
         "P. Giannozzi et al., J. Phys.:Condens. Matter 29 465901 (2017);
         "P. Giannozzi et al., J. Chem. Phys. 152 154105 (2020);
          URL http://www.quantum-espresso.org", 
     in publications or presentations arising from this work. More details at
     http://www.quantum-espresso.org/quote

     Parallel version (MPI & OpenMP), running on       8 processor cores
     Number of MPI processes:                 1
     Threads/MPI process:                     8

     MPI processes distributed on     1 nodes
     90284 MiB available memory on the printing compute node when the environment starts
 
     Reading input from cand261_A_ZrS2_La.in

     Current dimensions of program PWSCF are:
     Max number of different atomic species (ntypx) = 10
     Max number of k-points (npk) =  40000
     Max angular momentum in pseudopotentials (lmaxx) =  4
     file La.UPF: wavefunction(s)  5S 5D 4F renormalized
     file S.UPF: wavefunction(s)  3S 3P renormalized
     file Zr.UPF: wavefunction(s)  4S 4P renormalized
 
     Subspace diagonalization in iterative solution of the eigenvalue problem:
     a serial algorithm will be used

 
     G-vector sticks info
     --------------------
     sticks:   dense  smooth     PW     G-vecs:    dense   smooth      PW
     Sum        5413    3619    913               520309   283275   35495
 
     Using Slab Decomposition
 


     bravais-lattice index     =            0
     lattice parameter (alat)  =      20.8755  a.u.
     unit-cell volume          =   12759.8041 (a.u.)^3
     number of atoms/cell      =           28
     number of atomic types    =            3
     number of electrons       =       227.00
     number of Kohn-Sham states=          137
     kinetic-energy cutoff     =      30.0000  Ry
     charge density cutoff     =     180.0000  Ry
     scf convergence threshold =      1.0E-07
     mixing beta               =       0.4000
     number of iterations used =            8  plain     mixing
     Exchange-correlation= SLA  PW   PBX  PBC
                           (   1   4   3   4   0   0   0)

     GPU acceleration is ACTIVE.  1 visible GPUs per MPI rank


     celldm(1)=  20.875457  celldm(2)=   0.000000  celldm(3)=   0.000000
     celldm(4)=   0.000000  celldm(5)=   0.000000  celldm(6)=   0.000000

     crystal axes: (cart. coord. in units of alat)
               a(1) = (   1.000000   0.000000   0.000000 )  
               a(2) = (  -0.500000   0.866025   0.000000 )  
               a(3) = (   0.000000   0.000000   1.619591 )  

     reciprocal axes: (cart. coord. in units 2 pi/alat)
               b(1) = (  1.000000  0.577350 -0.000000 )  
               b(2) = (  0.000000  1.154701  0.000000 )  
               b(3) = (  0.000000 -0.000000  0.617440 )  


     PseudoPot. # 1 for La read from file:
     /root/qe_pseudos/La.UPF
     MD5 check sum: 6e6ac421535d279511fd22156ed99225
     Pseudo is Projector augmented-wave + core cor, Zval = 11.0
     Generated using &quot;atomic&quot; code by A. Dal Corso  v.6.2.2
     Shape of augmentation charge: PSQ
     Using radial grid of 1253 points,  8 beta functions with: 
                l(1) =   0
                l(2) =   0
                l(3) =   1
                l(4) =   1
                l(5) =   2
                l(6) =   2
                l(7) =   3
                l(8) =   3
     Q(r) pseudized with 0 coefficients 


     PseudoPot. # 2 for S  read from file:
     /root/qe_pseudos/S.UPF
     MD5 check sum: fb45dfebcf3e72a4e1bd4a866ec2e262
     Pseudo is Projector augmented-wave + core cor, Zval =  6.0
     Generated using &quot;atomic&quot; code by A. Dal Corso  v.6.3
     Shape of augmentation charge: PSQ
     Using radial grid of 1151 points,  6 beta functions with: 
                l(1) =   0
                l(2) =   0
                l(3) =   1
                l(4) =   1
                l(5) =   2
                l(6) =   2
     Q(r) pseudized with 0 coefficients 


     PseudoPot. # 3 for Zr read from file:
     /root/qe_pseudos/Zr.UPF
     MD5 check sum: 02112c41713a0468aff2bb39ef194e36
     Pseudo is Projector augmented-wave + core cor, Zval = 12.0
     Generated using &quot;atomic&quot; code by A. Dal Corso  v.6.2.2
     Shape of augmentation charge: PSQ
     Using radial grid of 1225 points,  6 beta functions with: 
                l(1) =   0
                l(2) =   0
                l(3) =   1
                l(4) =   1
                l(5) =   2
                l(6) =   2
     Q(r) pseudized with 0 coefficients 


     atomic species   valence    mass     pseudopotential
     La               11.00   138.90550     La( 1.00)
     S                 6.00    32.06000     S ( 1.00)
     Zr               12.00    91.22400     Zr( 1.00)

     No symmetry found



   Cartesian axes

     site n.     atom                  positions (alat units)
         1        S      tau(   1) = (   0.5158064   0.6855581   0.9035417  )
         2        S      tau(   2) = (   0.4842972   0.4637141   0.6642684  )
         3        S      tau(   3) = (   0.6668092   0.4058170   0.9315556  )
         4        S      tau(   4) = (   0.6661160   0.1999757   0.6829260  )
         5        S      tau(   5) = (   0.8124250   0.1107208   0.9648948  )
         6        S      tau(   6) = (   0.0206879   0.7551275   0.6544768  )
         7        S      tau(   7) = (   0.1662378   0.6659695   0.9365968  )
         8        S      tau(   8) = (   0.1668482   0.4601829   0.6880394  )
         9        S      tau(   9) = (   0.3126378   0.7553296   0.6547988  )
        10        S      tau(  10) = (   0.3172685   0.1806986   0.7161172  )
        11        S      tau(  11) = (   0.3491132   0.4026283   0.9555055  )
        12        S      tau(  12) = (  -0.3324307   0.7442980   0.6148393  )
        13        S      tau(  13) = (  -0.1825439   0.6855019   0.9034830  )
        14        S      tau(  14) = (  -0.1509164   0.4633867   0.6641002  )
        15        S      tau(  15) = (  -0.0158030   0.4024079   0.9553181  )
        16        S      tau(  16) = (   0.0157090   0.1803854   0.7161844  )
        17        S      tau(  17) = (   0.1671125   0.1218941   1.0048842  )
        18        S      tau(  18) = (   0.5204743   0.1106774   0.9648466  )
        19        Zr     tau(  19) = (   0.1668758   0.2943650   0.8736278  )
        20        Zr     tau(  20) = (   0.4135532  -0.0000154   0.8094847  )
        21        Zr     tau(  21) = (   0.0055396   0.5739211   0.7996727  )
        22        Zr     tau(  22) = (  -0.3330302   0.5717464   0.7460298  )
        23        Zr     tau(  23) = (   0.6664223  -0.0000550   0.8097183  )
        24        Zr     tau(  24) = (   0.5055563   0.2921011   0.8198861  )
        25        Zr     tau(  25) = (  -0.1720329   0.2919692   0.8198964  )
        26        Zr     tau(  26) = (   0.3279745   0.5739701   0.7996840  )
        27        Zr     tau(  27) = (  -0.0805573   0.0000090   0.8099902  )
        28        La     tau(  28) = (   0.1665163   0.0000192   0.8099105  )

     number of k points=     1  Methfessel-Paxton smearing, width (Ry)=  0.0100
                       cart. coord. in units 2pi/alat
        k(    1) = (   0.0000000   0.0000000   0.0000000), wk =   2.0000000

     Dense  grid:   520309 G-vectors     FFT dimensions: (  90,  90, 150)

     Smooth grid:   283275 G-vectors     FFT dimensions: (  75,  75, 120)

     Estimated max dynamical RAM per process >       5.39 GB

 %%%%%%%%%%%%%%%%%%%%%%%%%%%%%%%%%%%%%%%%%%%%%%%%%%%%%%%%%%%%%%%%%%%%%%%%%%%%%%
     Error in routine  ylmr2 (15):
     l too large, or wrong number of Ylm required
 %%%%%%%%%%%%%%%%%%%%%%%%%%%%%%%%%%%%%%%%%%%%%%%%%%%%%%%%%%%%%%%%%%%%%%%%%%%%%%

     stopping ...
--------------------------------------------------------------------------
MPI_ABORT was invoked on rank 0 in communicator MPI_COMM_WORLD
with errorcode 15.

NOTE: invoking MPI_ABORT causes Open MPI to kill all MPI processes.
You may or may not see output from other processes, depending on
exactly when Open MPI kills them.
--------------------------------------------------------------------------
