--------------------------------------------------------------------------
WARNING: Open MPI tried to bind a process but failed.  This is a
warning only; your job will continue, though performance may
be degraded.

  Local host:        3253031b5b37
  Application name:  /root/qe-7.3.1/bin/pw.x
  Error message:     failed to bind memory
  Location:          ../../../../../orte/mca/rtc/hwloc/rtc_hwloc.c:447

--------------------------------------------------------------------------

     Program PWSCF v.7.3.1 starts on  6May2026 at 17:52:38 

     This program is part of the open-source Quantum ESPRESSO suite
     for quantum simulation of materials; please cite
         "P. Giannozzi et al., J. Phys.:Condens. Matter 21 395502 (2009);
         "P. Giannozzi et al., J. Phys.:Condens. Matter 29 465901 (2017);
         "P. Giannozzi et al., J. Chem. Phys. 152 154105 (2020);
          URL http://www.quantum-espresso.org", 
     in publications or presentations arising from this work. More details at
     http://www.quantum-espresso.org/quote

     Parallel version (MPI & OpenMP), running on       8 processor cores
     Number of MPI processes:                 1
     Threads/MPI process:                     8

     MPI processes distributed on     1 nodes
     80593 MiB available memory on the printing compute node when the environment starts
 
     Reading input from cand186_A_Ti2CO2_Tl.in

     Current dimensions of program PWSCF are:
     Max number of different atomic species (ntypx) = 10
     Max number of k-points (npk) =  40000
     Max angular momentum in pseudopotentials (lmaxx) =  4
     file Ti.UPF: wavefunction(s)  3S 3P 3D renormalized
     file Tl.UPF: wavefunction(s)  6S 5D renormalized
 
     Subspace diagonalization in iterative solution of the eigenvalue problem:
     a serial algorithm will be used

 
     G-vector sticks info
     --------------------
     sticks:   dense  smooth     PW     G-vecs:    dense   smooth      PW
     Sum        6505    4339   1069               681217   370707   46193
 
     Using Slab Decomposition
 


     bravais-lattice index     =            0
     lattice parameter (alat)  =      22.9196  a.u.
     unit-cell volume          =   16700.1634 (a.u.)^3
     number of atoms/cell      =           81
     number of atomic types    =            4
     number of electrons       =       653.00
     number of Kohn-Sham states=          392
     kinetic-energy cutoff     =      30.0000  Ry
     charge density cutoff     =     180.0000  Ry
     scf convergence threshold =      1.0E-07
     mixing beta               =       0.4000
     number of iterations used =            8  plain     mixing
     Exchange-correlation= PBE
                           (   1   4   3   4   0   0   0)

     GPU acceleration is ACTIVE.  1 visible GPUs per MPI rank


     celldm(1)=  22.919623  celldm(2)=   0.000000  celldm(3)=   0.000000
     celldm(4)=   0.000000  celldm(5)=   0.000000  celldm(6)=   0.000000

     crystal axes: (cart. coord. in units of alat)
               a(1) = (   1.000000   0.000000   0.000000 )  
               a(2) = (  -0.500000   0.866025   0.000000 )  
               a(3) = (   0.000000   0.000000   1.601650 )  

     reciprocal axes: (cart. coord. in units 2 pi/alat)
               b(1) = (  1.000000  0.577350 -0.000000 )  
               b(2) = (  0.000000  1.154701  0.000000 )  
               b(3) = (  0.000000 -0.000000  0.624356 )  


     PseudoPot. # 1 for C  read from file:
     /root/qe_pseudos/C.UPF
     MD5 check sum: 9b35a7431356f8229172919cb1fa74b8
     Pseudo is Norm-conserving, Zval =  4.0
     Generated by new atomic code, or converted to UPF format
     Using radial grid of 1073 points,  1 beta functions with: 
                l(1) =   0

     PseudoPot. # 2 for O  read from file:
     /root/qe_pseudos/O.UPF
     MD5 check sum: c7f41d994d4e90c1781f5cd713c45011
     Pseudo is Projector augmented-wave + core cor, Zval =  6.0
     Generated using "atomic" code by A. Dal Corso (espresso distribution)
     Shape of augmentation charge: BESSEL
     Using radial grid of 1095 points,  4 beta functions with: 
                l(1) =   0
                l(2) =   0
                l(3) =   1
                l(4) =   1
     Q(r) pseudized with 0 coefficients 


     PseudoPot. # 3 for Ti read from file:
     /root/qe_pseudos/Ti.UPF
     MD5 check sum: 01f69b0d8ba4438b2e03ac6ea4af1c0b
     Pseudo is Projector augmented-wave + core cor, Zval = 12.0
     Generated using &quot;atomic&quot; code by A. Dal Corso  v.6.2.2
     Shape of augmentation charge: PSQ
     Using radial grid of 1177 points,  6 beta functions with: 
                l(1) =   0
                l(2) =   0
                l(3) =   1
                l(4) =   1
                l(5) =   2
                l(6) =   2
     Q(r) pseudized with 0 coefficients 


     PseudoPot. # 4 for Tl read from file:
     /root/qe_pseudos/Tl.UPF
     MD5 check sum: 2f569f9d4f3250f3c1b402bd3424fb74
     Pseudo is Ultrasoft + core correction, Zval = 13.0
     Generated using &quot;atomic&quot; code by A. Dal Corso  v.6.2.2
     Using radial grid of 1281 points,  6 beta functions with: 
                l(1) =   0
                l(2) =   0
                l(3) =   1
                l(4) =   1
                l(5) =   2
                l(6) =   2
     Q(r) pseudized with 0 coefficients 


     atomic species   valence    mass     pseudopotential
     C                 4.00    12.01100     C ( 1.00)
     O                 6.00    15.99900     O ( 1.00)
     Ti               12.00    47.86700     Ti( 1.00)
     Tl               13.00   204.38000     Tl( 1.00)

     No symmetry found



   Cartesian axes

     site n.     atom                  positions (alat units)
         1        C      tau(   1) = (   0.1249188   0.6499129   0.8017710  )
         2        C      tau(   2) = (   0.2497002   0.4329782   0.8015083  )
         3        C      tau(   3) = (   0.0013343  -0.0001803   0.7965345  )
         4        C      tau(   4) = (   0.3753360   0.2158560   0.8014691  )
         5        C      tau(   5) = (   0.7494872  -0.0014052   0.7995173  )
         6        C      tau(   6) = (   0.3737900   0.6497823   0.7994387  )
         7        C      tau(   7) = (   0.4999722  -0.0009064   0.8013069  )
         8        C      tau(   8) = (  -0.1244642   0.2177356   0.7994139  )
         9        C      tau(   9) = (  -0.1251317   0.6495064   0.8021058  )
        10        C      tau(  10) = (  -0.0000586   0.4328371   0.8019206  )
        11        C      tau(  11) = (   0.6257128   0.2157144   0.8009463  )
        12        C      tau(  12) = (   0.1241309   0.2166367   0.8012095  )
        13        C      tau(  13) = (  -0.2492027   0.4335097   0.8010627  )
        14        C      tau(  14) = (   0.2499194  -0.0008014   0.8014235  )
        15        C      tau(  15) = (  -0.3742097   0.6492817   0.7997662  )
        16        C      tau(  16) = (   0.5001909   0.4335933   0.8009429  )
        17        O      tau(  17) = (  -0.1234682   0.5060488   0.6181766  )
        18        O      tau(  18) = (  -0.1250693   0.7945856   0.9836062  )
        19        O      tau(  19) = (  -0.0007331   0.7204492   0.6189406  )
        20        O      tau(  20) = (   0.5001006   0.7194885   0.6157836  )
        21        O      tau(  21) = (   0.7463851   0.1462507   0.9860471  )
        22        O      tau(  22) = (   0.4999572   0.1445103   0.9837096  )
        23        O      tau(  23) = (   0.6233818   0.0726057   0.6188243  )
        24        O      tau(  24) = (  -0.1251383   0.3601303   0.9840684  )
        25        O      tau(  25) = (   0.1281523   0.0741461   0.6163491  )
        26        O      tau(  26) = (   0.3754952   0.3607461   0.9838949  )
        27        O      tau(  27) = (   0.4998910   0.2883867   0.6197260  )
        28        O      tau(  28) = (   0.2470808   0.7199492   0.6169612  )
        29        O      tau(  29) = (   0.3753654   0.7919149   0.9919057  )
        30        O      tau(  30) = (   0.2508844   0.5774315   0.9838792  )
        31        O      tau(  31) = (   0.3744967   0.5036101   0.6185398  )
        32        O      tau(  32) = (   0.0033997   0.1428541   0.9902424  )
        33        O      tau(  33) = (   0.5000394   0.5748048   0.9847660  )
        34        O      tau(  34) = (   0.8736566   0.0731561   0.6159089  )
        35        O      tau(  35) = (   0.7493030   0.2895528   0.6181769  )
        36        O      tau(  36) = (  -0.3757893   0.7969653   0.9899836  )
        37        O      tau(  37) = (  -0.2470495   0.7213302   0.6175998  )
        38        O      tau(  38) = (  -0.2506540   0.5774672   0.9839436  )
        39        O      tau(  39) = (   0.2505590   0.1441140   0.9837039  )
        40        O      tau(  40) = (   0.3753011   0.0720146   0.6192684  )
        41        O      tau(  41) = (   0.1236323   0.5051283   0.6185349  )
        42        O      tau(  42) = (   0.6244734   0.3606052   0.9830807  )
        43        O      tau(  43) = (   0.1253904   0.3604643   0.9838101  )
        44        O      tau(  44) = (   0.1256118   0.7945312   0.9841906  )
        45        O      tau(  45) = (   0.2499056   0.2888345   0.6194117  )
        46        O      tau(  46) = (   0.0013245   0.2913879   0.6173643  )
        47        O      tau(  47) = (   0.0001666   0.5774413   0.9835165  )
        48        O      tau(  48) = (   0.6253355   0.5039489   0.6179019  )
        49        Ti     tau(  49) = (   0.4982494   0.7222314   0.8944902  )
        50        Ti     tau(  50) = (   0.8755397   0.0704040   0.8929176  )
        51        Ti     tau(  51) = (   0.3749821   0.7945517   0.6954423  )
        52        Ti     tau(  52) = (   0.7505154   0.2869371   0.9080004  )
        53        Ti     tau(  53) = (   0.7502059   0.1444669   0.6926967  )
        54        Ti     tau(  54) = (   0.4998822   0.5784003   0.6935007  )
        55        Ti     tau(  55) = (   0.6242944   0.5063219   0.9073039  )
        56        Ti     tau(  56) = (   0.6246349   0.3613529   0.6929209  )
        57        Ti     tau(  57) = (  -0.0001596   0.1418761   0.6961375  )
        58        Ti     tau(  58) = (   0.1275730   0.7936226   0.7004576  )
        59        Ti     tau(  59) = (   0.1257438   0.0727206   0.9058561  )
        60        Ti     tau(  60) = (  -0.1247682   0.3587514   0.6979521  )
        61        Ti     tau(  61) = (   0.0003479   0.2863292   0.9084459  )
        62        Ti     tau(  62) = (  -0.2503624   0.5778067   0.6959356  )
        63        Ti     tau(  63) = (  -0.1253183   0.5048690   0.9076752  )
        64        Ti     tau(  64) = (  -0.3770250   0.7940274   0.6957541  )
        65        Ti     tau(  65) = (  -0.2508581   0.7229755   0.9079026  )
        66        Ti     tau(  66) = (   0.2494795   0.1441205   0.6922846  )
        67        Ti     tau(  67) = (   0.3745120   0.0718920   0.9059445  )
        68        Ti     tau(  68) = (   0.2530498   0.7245134   0.9089797  )
        69        Ti     tau(  69) = (   0.1228620   0.3610579   0.6936770  )
        70        Ti     tau(  70) = (  -0.0009251   0.5771396   0.6926827  )
        71        Ti     tau(  71) = (   0.1243359   0.5062889   0.9070138  )
        72        Ti     tau(  72) = (  -0.1251728   0.7929794   0.6932917  )
        73        Ti     tau(  73) = (   0.0001135   0.7217934   0.9063679  )
        74        Ti     tau(  74) = (   0.6268374   0.0736395   0.9104792  )
        75        Ti     tau(  75) = (   0.3744465   0.3616613   0.6943623  )
        76        Ti     tau(  76) = (   0.4997562   0.2888820   0.9100555  )
        77        Ti     tau(  77) = (   0.2507614   0.5794139   0.6962552  )
        78        Ti     tau(  78) = (   0.3755897   0.5060977   0.9092215  )
        79        Ti     tau(  79) = (   0.2488962   0.2897206   0.9068658  )
        80        Ti     tau(  80) = (   0.5009897   0.1436925   0.6945257  )
        81        Tl     tau(  81) = (  -0.0018226  -0.0004779   1.1289756  )

     number of k points=     1  Methfessel-Paxton smearing, width (Ry)=  0.0100
                       cart. coord. in units 2pi/alat
        k(    1) = (   0.0000000   0.0000000   0.0000000), wk =   2.0000000

     Dense  grid:   681217 G-vectors     FFT dimensions: ( 100, 100, 160)

     Smooth grid:   370707 G-vectors     FFT dimensions: (  80,  80, 135)

     Estimated max dynamical RAM per process >       4.16 GB

     Check: negative core charge=   -0.000044

     Initial potential from superposition of free atoms

     starting charge     644.9481, renormalised to     653.0000

     negative rho (up, down):  4.232E-02 0.000E+00
     Starting wfcs are  585 randomized atomic wfcs
     Checking if some PAW data can be deallocated... 

     total cpu time spent up to now is       26.7 secs

     Self-consistent Calculation

     iteration #  1     ecut=    30.00 Ry     beta= 0.40
     Davidson diagonalization with overlap
     ethr =  1.00E-02,  avg # of iterations =  3.0

     negative rho (up, down):  3.828E-02 0.000E+00

     total cpu time spent up to now is       46.5 secs

     total energy              =   -7496.62885399 Ry
     estimated scf accuracy    <      57.03759459 Ry

     iteration #  2     ecut=    30.00 Ry     beta= 0.40
     Davidson diagonalization with overlap
     ethr =  8.73E-03,  avg # of iterations =  5.0

     negative rho (up, down):  5.742E-02 0.000E+00

     total cpu time spent up to now is       66.4 secs

     total energy              =   -7502.81261755 Ry
     estimated scf accuracy    <      41.26897240 Ry

     iteration #  3     ecut=    30.00 Ry     beta= 0.40
     Davidson diagonalization with overlap
     ethr =  6.32E-03,  avg # of iterations =  6.0

     negative rho (up, down):  1.526E-01 0.000E+00

     total cpu time spent up to now is       86.5 secs

     total energy              =   -7494.70255071 Ry
     estimated scf accuracy    <     361.61689310 Ry

     iteration #  4     ecut=    30.00 Ry     beta= 0.40
     Davidson diagonalization with overlap
     ethr =  6.32E-03,  avg # of iterations =  2.0
     Minimization algorithm failed to find Fermi energy: reverting to bisection
     Possible cause: smearing is larger than the electronic band-gap.

     negative rho (up, down):  9.993E-02 0.000E+00

     total cpu time spent up to now is      105.9 secs

     total energy              =   -7513.60537778 Ry
     estimated scf accuracy    <       4.71547972 Ry

     iteration #  5     ecut=    30.00 Ry     beta= 0.40
     Davidson diagonalization with overlap
     ethr =  7.22E-04,  avg # of iterations =  7.0
     Minimization algorithm failed to find Fermi energy: reverting to bisection
     Possible cause: smearing is larger than the electronic band-gap.

     negative rho (up, down):  9.701E-02 0.000E+00

     total cpu time spent up to now is      125.7 secs

     total energy              =   -7513.80499550 Ry
     estimated scf accuracy    <       1.65713136 Ry

     iteration #  6     ecut=    30.00 Ry     beta= 0.40
     Davidson diagonalization with overlap
     ethr =  2.54E-04,  avg # of iterations =  6.0

     negative rho (up, down):  1.061E-01 0.000E+00

     total cpu time spent up to now is      145.4 secs

     total energy              =   -7513.66181997 Ry
     estimated scf accuracy    <       0.78385026 Ry

     iteration #  7     ecut=    30.00 Ry     beta= 0.40
     Davidson diagonalization with overlap
     ethr =  1.20E-04,  avg # of iterations = 13.0

     negative rho (up, down):  1.340E-01 0.000E+00

     total cpu time spent up to now is      166.5 secs

     total energy              =   -7513.80377867 Ry
     estimated scf accuracy    <       0.53818054 Ry

     iteration #  8     ecut=    30.00 Ry     beta= 0.40
     Davidson diagonalization with overlap
     c_bands:  1 eigenvalues not converged
     ethr =  8.24E-05,  avg # of iterations = 20.0

     negative rho (up, down):  1.746E-01 0.000E+00

     total cpu time spent up to now is      187.0 secs

     total energy              =   -7513.80205163 Ry
     estimated scf accuracy    <       0.39354929 Ry

     iteration #  9     ecut=    30.00 Ry     beta= 0.40
     Davidson diagonalization with overlap
     ethr =  6.03E-05,  avg # of iterations =  2.0

     negative rho (up, down):  2.232E-01 0.000E+00

     total cpu time spent up to now is      206.4 secs

     total energy              =   -7513.82320348 Ry
     estimated scf accuracy    <       0.06352370 Ry

     iteration # 10     ecut=    30.00 Ry     beta= 0.40
     Davidson diagonalization with overlap
     ethr =  9.73E-06,  avg # of iterations = 14.0

     negative rho (up, down):  2.799E-01 0.000E+00

     total cpu time spent up to now is      227.2 secs

     total energy              =   -7513.83340589 Ry
     estimated scf accuracy    <       0.02360670 Ry

     iteration # 11     ecut=    30.00 Ry     beta= 0.40
     Davidson diagonalization with overlap
     c_bands:  1 eigenvalues not converged
     ethr =  3.62E-06,  avg # of iterations = 20.0

     negative rho (up, down):  3.450E-01 0.000E+00

     total cpu time spent up to now is      248.7 secs

     total energy              =   -7513.84029302 Ry
     estimated scf accuracy    <       0.02362276 Ry

     iteration # 12     ecut=    30.00 Ry     beta= 0.40
     Davidson diagonalization with overlap
     ethr =  3.62E-06,  avg # of iterations =  2.0

     negative rho (up, down):  4.092E-01 0.000E+00

     total cpu time spent up to now is      268.3 secs

     total energy              =   -7513.84497528 Ry
     estimated scf accuracy    <       0.01049816 Ry

     iteration # 13     ecut=    30.00 Ry     beta= 0.40
     Davidson diagonalization with overlap
     ethr =  1.61E-06,  avg # of iterations =  2.0

     negative rho (up, down):  4.636E-01 0.000E+00

     total cpu time spent up to now is      287.8 secs

     total energy              =   -7513.85103132 Ry
     estimated scf accuracy    <       0.00767245 Ry

     iteration # 14     ecut=    30.00 Ry     beta= 0.40
     Davidson diagonalization with overlap
     ethr =  1.17E-06,  avg # of iterations =  4.0

     negative rho (up, down):  5.323E-01 0.000E+00

     total cpu time spent up to now is      307.5 secs

     total energy              =   -7513.85536159 Ry
     estimated scf accuracy    <       0.00318077 Ry

     iteration # 15     ecut=    30.00 Ry     beta= 0.40
     Davidson diagonalization with overlap
     ethr =  4.87E-07,  avg # of iterations =  2.0

     negative rho (up, down):  5.887E-01 0.000E+00

     total cpu time spent up to now is      327.1 secs

     total energy              =   -7513.86176246 Ry
     estimated scf accuracy    <       0.00340010 Ry

     iteration # 16     ecut=    30.00 Ry     beta= 0.40
     Davidson diagonalization with overlap
     ethr =  4.87E-07,  avg # of iterations =  2.0

     negative rho (up, down):  6.655E-01 0.000E+00

     total cpu time spent up to now is      346.6 secs

     total energy              =   -7513.86189372 Ry
     estimated scf accuracy    <       0.00146584 Ry

     iteration # 17     ecut=    30.00 Ry     beta= 0.40
     Davidson diagonalization with overlap
     ethr =  2.24E-07,  avg # of iterations =  5.0

     negative rho (up, down):  7.204E-01 0.000E+00

     total cpu time spent up to now is      366.5 secs

     total energy              =   -7513.86568799 Ry
     estimated scf accuracy    <       0.00226555 Ry

     iteration # 18     ecut=    30.00 Ry     beta= 0.40
     Davidson diagonalization with overlap
     ethr =  2.24E-07,  avg # of iterations =  5.0

     negative rho (up, down):  7.694E-01 0.000E+00

     total cpu time spent up to now is      386.4 secs

     total energy              =   -7513.87021457 Ry
     estimated scf accuracy    <       0.00104228 Ry

     iteration # 19     ecut=    30.00 Ry     beta= 0.40
     Davidson diagonalization with overlap
     ethr =  1.60E-07,  avg # of iterations =  2.0

     negative rho (up, down):  8.169E-01 0.000E+00

     total cpu time spent up to now is      405.9 secs

     total energy              =   -7513.87389469 Ry
     estimated scf accuracy    <       0.00035115 Ry

     iteration # 20     ecut=    30.00 Ry     beta= 0.40
     Davidson diagonalization with overlap
     ethr =  5.38E-08,  avg # of iterations =  5.0

     negative rho (up, down):  8.656E-01 0.000E+00

     total cpu time spent up to now is      425.9 secs

     total energy              =   -7513.87567348 Ry
     estimated scf accuracy    <       0.00062053 Ry

     iteration # 21     ecut=    30.00 Ry     beta= 0.40
     Davidson diagonalization with overlap
     ethr =  5.38E-08,  avg # of iterations =  3.0

     negative rho (up, down):  9.198E-01 0.000E+00

     total cpu time spent up to now is      445.8 secs

     total energy              =   -7513.87408694 Ry
     estimated scf accuracy    <       0.00131399 Ry

     iteration # 22     ecut=    30.00 Ry     beta= 0.40
     Davidson diagonalization with overlap
     ethr =  5.38E-08,  avg # of iterations =  3.0

     negative rho (up, down):  9.755E-01 0.000E+00

     total cpu time spent up to now is      465.7 secs

     total energy              =   -7513.87039433 Ry
     estimated scf accuracy    <       0.00216402 Ry

     iteration # 23     ecut=    30.00 Ry     beta= 0.40
     Davidson diagonalization with overlap
     ethr =  5.38E-08,  avg # of iterations =  5.0

     negative rho (up, down):  1.033E+00 0.000E+00

     total cpu time spent up to now is      485.7 secs

     total energy              =   -7513.86385631 Ry
     estimated scf accuracy    <       0.00335560 Ry

     iteration # 24     ecut=    30.00 Ry     beta= 0.40
     Davidson diagonalization with overlap
     ethr =  5.38E-08,  avg # of iterations =  5.0

     negative rho (up, down):  1.087E+00 0.000E+00

     total cpu time spent up to now is      505.6 secs

     total energy              =   -7513.85636255 Ry
     estimated scf accuracy    <       0.00457846 Ry

     iteration # 25     ecut=    30.00 Ry     beta= 0.40
     Davidson diagonalization with overlap
     ethr =  5.38E-08,  avg # of iterations =  2.0

     negative rho (up, down):  1.117E+00 0.000E+00

     total cpu time spent up to now is      525.3 secs

     total energy              =   -7513.85546763 Ry
     estimated scf accuracy    <       0.00566785 Ry

     iteration # 26     ecut=    30.00 Ry     beta= 0.40
     Davidson diagonalization with overlap
     ethr =  5.38E-08,  avg # of iterations =  2.0

     negative rho (up, down):  1.154E+00 0.000E+00

     total cpu time spent up to now is      544.8 secs

     total energy              =   -7513.85079887 Ry
     estimated scf accuracy    <       0.00565117 Ry

     iteration # 27     ecut=    30.00 Ry     beta= 0.40
     Davidson diagonalization with overlap
     ethr =  5.38E-08,  avg # of iterations =  2.0

     negative rho (up, down):  1.187E+00 0.000E+00

     total cpu time spent up to now is      564.5 secs

     total energy              =   -7513.84621755 Ry
     estimated scf accuracy    <       0.00627599 Ry

     iteration # 28     ecut=    30.00 Ry     beta= 0.40
     Davidson diagonalization with overlap
     ethr =  5.38E-08,  avg # of iterations =  2.0

     negative rho (up, down):  1.169E+00 0.000E+00

     total cpu time spent up to now is      584.0 secs

     total energy              =   -7513.85940485 Ry
     estimated scf accuracy    <       0.00688173 Ry

     iteration # 29     ecut=    30.00 Ry     beta= 0.40
     Davidson diagonalization with overlap
     ethr =  5.38E-08,  avg # of iterations =  2.0

     negative rho (up, down):  1.187E+00 0.000E+00

     total cpu time spent up to now is      603.7 secs

     total energy              =   -7513.85944108 Ry
     estimated scf accuracy    <       0.00502815 Ry

     iteration # 30     ecut=    30.00 Ry     beta= 0.40
     Davidson diagonalization with overlap
     ethr =  5.38E-08,  avg # of iterations =  2.0

     negative rho (up, down):  1.208E+00 0.000E+00

     total cpu time spent up to now is      623.3 secs

     total energy              =   -7513.85788754 Ry
     estimated scf accuracy    <       0.00480368 Ry

     iteration # 31     ecut=    30.00 Ry     beta= 0.40
     Davidson diagonalization with overlap
     ethr =  5.38E-08,  avg # of iterations =  2.0

     negative rho (up, down):  1.224E+00 0.000E+00

     total cpu time spent up to now is      642.9 secs

     total energy              =   -7513.85705316 Ry
     estimated scf accuracy    <       0.00496924 Ry

     iteration # 32     ecut=    30.00 Ry     beta= 0.40
     Davidson diagonalization with overlap
     ethr =  5.38E-08,  avg # of iterations =  2.0

     negative rho (up, down):  1.248E+00 0.000E+00

     total cpu time spent up to now is      662.5 secs

     total energy              =   -7513.85247021 Ry
     estimated scf accuracy    <       0.00510947 Ry

     iteration # 33     ecut=    30.00 Ry     beta= 0.40
     Davidson diagonalization with overlap
     ethr =  5.38E-08,  avg # of iterations =  2.0

     negative rho (up, down):  1.266E+00 0.000E+00

     total cpu time spent up to now is      682.1 secs

     total energy              =   -7513.84953759 Ry
     estimated scf accuracy    <       0.00574268 Ry

     iteration # 34     ecut=    30.00 Ry     beta= 0.40
     Davidson diagonalization with overlap
     ethr =  5.38E-08,  avg # of iterations =  2.0

     negative rho (up, down):  1.285E+00 0.000E+00

     total cpu time spent up to now is      701.6 secs

     total energy              =   -7513.84555552 Ry
     estimated scf accuracy    <       0.00610024 Ry

     iteration # 35     ecut=    30.00 Ry     beta= 0.40
     Davidson diagonalization with overlap
     ethr =  5.38E-08,  avg # of iterations =  2.0

     negative rho (up, down):  1.262E+00 0.000E+00

     total cpu time spent up to now is      721.0 secs

     total energy              =   -7513.85817621 Ry
     estimated scf accuracy    <       0.00661928 Ry

     iteration # 36     ecut=    30.00 Ry     beta= 0.40
     Davidson diagonalization with overlap
     ethr =  5.38E-08,  avg # of iterations =  4.0

     negative rho (up, down):  1.271E+00 0.000E+00

     total cpu time spent up to now is      740.9 secs

     total energy              =   -7513.85739625 Ry
     estimated scf accuracy    <       0.00479331 Ry

     iteration # 37     ecut=    30.00 Ry     beta= 0.40
     Davidson diagonalization with overlap
     ethr =  5.38E-08,  avg # of iterations =  5.0

     negative rho (up, down):  1.284E+00 0.000E+00

     total cpu time spent up to now is      760.8 secs

     total energy              =   -7513.85514996 Ry
     estimated scf accuracy    <       0.00526899 Ry

     iteration # 38     ecut=    30.00 Ry     beta= 0.40
     Davidson diagonalization with overlap
     ethr =  5.38E-08,  avg # of iterations =  5.0

     negative rho (up, down):  1.299E+00 0.000E+00

     total cpu time spent up to now is      780.7 secs

     total energy              =   -7513.85190863 Ry
     estimated scf accuracy    <       0.00509497 Ry

     iteration # 39     ecut=    30.00 Ry     beta= 0.40
     Davidson diagonalization with overlap
     ethr =  5.38E-08,  avg # of iterations =  2.0

     negative rho (up, down):  1.312E+00 0.000E+00

     total cpu time spent up to now is      800.1 secs

     total energy              =   -7513.84862584 Ry
     estimated scf accuracy    <       0.00555978 Ry

     iteration # 40     ecut=    30.00 Ry     beta= 0.40
     Davidson diagonalization with overlap
     ethr =  5.38E-08,  avg # of iterations =  2.0

     negative rho (up, down):  1.324E+00 0.000E+00

     total cpu time spent up to now is      819.6 secs

     total energy              =   -7513.84518692 Ry
     estimated scf accuracy    <       0.00604158 Ry

     iteration # 41     ecut=    30.00 Ry     beta= 0.40
     Davidson diagonalization with overlap
     ethr =  5.38E-08,  avg # of iterations =  2.0

     negative rho (up, down):  1.275E+00 0.000E+00

     total cpu time spent up to now is      839.1 secs

     total energy              =   -7513.86292999 Ry
     estimated scf accuracy    <       0.00637059 Ry

     iteration # 42     ecut=    30.00 Ry     beta= 0.40
     Davidson diagonalization with overlap
     ethr =  5.38E-08,  avg # of iterations =  6.0

     negative rho (up, down):  1.285E+00 0.000E+00

     total cpu time spent up to now is      859.4 secs

     total energy              =   -7513.86163663 Ry
     estimated scf accuracy    <       0.00495513 Ry

     iteration # 43     ecut=    30.00 Ry     beta= 0.40
     Davidson diagonalization with overlap
     ethr =  5.38E-08,  avg # of iterations =  6.0

     negative rho (up, down):  1.260E+00 0.000E+00

     total cpu time spent up to now is      879.7 secs

     total energy              =   -7513.87226274 Ry
     estimated scf accuracy    <       0.00577159 Ry

     iteration # 44     ecut=    30.00 Ry     beta= 0.40
     Davidson diagonalization with overlap
     ethr =  5.38E-08,  avg # of iterations =  6.0

     negative rho (up, down):  1.266E+00 0.000E+00

     total cpu time spent up to now is      899.9 secs

     total energy              =   -7513.87343538 Ry
     estimated scf accuracy    <       0.00286073 Ry

     iteration # 45     ecut=    30.00 Ry     beta= 0.40
     Davidson diagonalization with overlap
     ethr =  5.38E-08,  avg # of iterations =  5.0

     negative rho (up, down):  1.269E+00 0.000E+00

     total cpu time spent up to now is      919.7 secs

     total energy              =   -7513.87488641 Ry
     estimated scf accuracy    <       0.00263413 Ry

     iteration # 46     ecut=    30.00 Ry     beta= 0.40
     Davidson diagonalization with overlap
     ethr =  5.38E-08,  avg # of iterations =  3.0

     negative rho (up, down):  1.271E+00 0.000E+00

     total cpu time spent up to now is      939.5 secs

     total energy              =   -7513.87650827 Ry
     estimated scf accuracy    <       0.00230353 Ry

     iteration # 47     ecut=    30.00 Ry     beta= 0.40
     Davidson diagonalization with overlap
     ethr =  5.38E-08,  avg # of iterations =  2.0

     negative rho (up, down):  1.268E+00 0.000E+00

     total cpu time spent up to now is      958.9 secs

     total energy              =   -7513.88204689 Ry
     estimated scf accuracy    <       0.00211060 Ry

     iteration # 48     ecut=    30.00 Ry     beta= 0.40
     Davidson diagonalization with overlap
     ethr =  5.38E-08,  avg # of iterations = 20.0

     negative rho (up, down):  1.263E+00 0.000E+00

     total cpu time spent up to now is      980.7 secs

     total energy              =   -7513.88538058 Ry
     estimated scf accuracy    <       0.00516866 Ry

     iteration # 49     ecut=    30.00 Ry     beta= 0.40
     Davidson diagonalization with overlap
     ethr =  5.38E-08,  avg # of iterations =  8.0

     negative rho (up, down):  1.263E+00 0.000E+00

     total cpu time spent up to now is     1001.2 secs

     total energy              =   -7513.88732219 Ry
     estimated scf accuracy    <       0.00045102 Ry

     iteration # 50     ecut=    30.00 Ry     beta= 0.40
     Davidson diagonalization with overlap
     ethr =  5.38E-08,  avg # of iterations =  5.0

     negative rho (up, down):  1.269E+00 0.000E+00

     total cpu time spent up to now is     1020.8 secs

     total energy              =   -7513.88777885 Ry
     estimated scf accuracy    <       0.00008074 Ry

     iteration # 51     ecut=    30.00 Ry     beta= 0.40
     Davidson diagonalization with overlap
     ethr =  1.24E-08,  avg # of iterations =  6.0

     negative rho (up, down):  1.275E+00 0.000E+00

     total cpu time spent up to now is     1041.1 secs

     total energy              =   -7513.88788712 Ry
     estimated scf accuracy    <       0.00033186 Ry

     iteration # 52     ecut=    30.00 Ry     beta= 0.40
     Davidson diagonalization with overlap
     ethr =  1.24E-08,  avg # of iterations =  6.0

     negative rho (up, down):  1.280E+00 0.000E+00

     total cpu time spent up to now is     1061.0 secs

     total energy              =   -7513.88797834 Ry
     estimated scf accuracy    <       0.00004653 Ry

     iteration # 53     ecut=    30.00 Ry     beta= 0.40
     Davidson diagonalization with overlap
     ethr =  7.13E-09,  avg # of iterations =  2.0

     negative rho (up, down):  1.286E+00 0.000E+00

     total cpu time spent up to now is     1080.7 secs

     total energy              =   -7513.88801697 Ry
     estimated scf accuracy    <       0.00003591 Ry

     iteration # 54     ecut=    30.00 Ry     beta= 0.40
     Davidson diagonalization with overlap
     ethr =  5.50E-09,  avg # of iterations =  5.0

     negative rho (up, down):  1.290E+00 0.000E+00

     total cpu time spent up to now is     1100.6 secs

     total energy              =   -7513.88800846 Ry
     estimated scf accuracy    <       0.00004932 Ry

     iteration # 55     ecut=    30.00 Ry     beta= 0.40
     Davidson diagonalization with overlap
     ethr =  5.50E-09,  avg # of iterations =  2.0

     negative rho (up, down):  1.294E+00 0.000E+00

     total cpu time spent up to now is     1120.0 secs

     total energy              =   -7513.88770879 Ry
     estimated scf accuracy    <       0.00006183 Ry

     iteration # 56     ecut=    30.00 Ry     beta= 0.40
     Davidson diagonalization with overlap
     ethr =  5.50E-09,  avg # of iterations =  3.0

     negative rho (up, down):  1.299E+00 0.000E+00

     total cpu time spent up to now is     1139.7 secs

     total energy              =   -7513.88724074 Ry
     estimated scf accuracy    <       0.00013864 Ry

     iteration # 57     ecut=    30.00 Ry     beta= 0.40
     Davidson diagonalization with overlap
     ethr =  5.50E-09,  avg # of iterations =  2.0

     negative rho (up, down):  1.301E+00 0.000E+00

     total cpu time spent up to now is     1159.2 secs

     total energy              =   -7513.88746741 Ry
     estimated scf accuracy    <       0.00022219 Ry

     iteration # 58     ecut=    30.00 Ry     beta= 0.40
     Davidson diagonalization with overlap
     ethr =  5.50E-09,  avg # of iterations =  2.0

     negative rho (up, down):  1.304E+00 0.000E+00

     total cpu time spent up to now is     1178.6 secs

     total energy              =   -7513.88749001 Ry
     estimated scf accuracy    <       0.00018512 Ry

     iteration # 59     ecut=    30.00 Ry     beta= 0.40
     Davidson diagonalization with overlap
     ethr =  5.50E-09,  avg # of iterations =  2.0

     negative rho (up, down):  1.306E+00 0.000E+00

     total cpu time spent up to now is     1198.1 secs

     total energy              =   -7513.88768927 Ry
     estimated scf accuracy    <       0.00018337 Ry

     iteration # 60     ecut=    30.00 Ry     beta= 0.40
     Davidson diagonalization with overlap
     ethr =  5.50E-09,  avg # of iterations =  2.0

     negative rho (up, down):  1.308E+00 0.000E+00

     total cpu time spent up to now is     1217.5 secs

     total energy              =   -7513.88765865 Ry
     estimated scf accuracy    <       0.00014868 Ry

     iteration # 61     ecut=    30.00 Ry     beta= 0.40
     Davidson diagonalization with overlap
     ethr =  5.50E-09,  avg # of iterations =  2.0

     negative rho (up, down):  1.311E+00 0.000E+00

     total cpu time spent up to now is     1237.1 secs

     total energy              =   -7513.88741712 Ry
     estimated scf accuracy    <       0.00016013 Ry

     iteration # 62     ecut=    30.00 Ry     beta= 0.40
     Davidson diagonalization with overlap
     ethr =  5.50E-09,  avg # of iterations =  2.0

     negative rho (up, down):  1.312E+00 0.000E+00

     total cpu time spent up to now is     1256.5 secs

     total energy              =   -7513.88782236 Ry
     estimated scf accuracy    <       0.00020570 Ry

     iteration # 63     ecut=    30.00 Ry     beta= 0.40
     Davidson diagonalization with overlap
     ethr =  5.50E-09,  avg # of iterations =  2.0

     negative rho (up, down):  1.313E+00 0.000E+00

     total cpu time spent up to now is     1276.0 secs

     total energy              =   -7513.88776214 Ry
     estimated scf accuracy    <       0.00012567 Ry

     iteration # 64     ecut=    30.00 Ry     beta= 0.40
     Davidson diagonalization with overlap
     ethr =  5.50E-09,  avg # of iterations =  2.0

     negative rho (up, down):  1.313E+00 0.000E+00

     total cpu time spent up to now is     1295.6 secs

     total energy              =   -7513.88828933 Ry
     estimated scf accuracy    <       0.00013703 Ry

     iteration # 65     ecut=    30.00 Ry     beta= 0.40
     Davidson diagonalization with overlap
     ethr =  5.50E-09,  avg # of iterations =  2.0

     negative rho (up, down):  1.315E+00 0.000E+00

     total cpu time spent up to now is     1315.1 secs

     total energy              =   -7513.88808113 Ry
     estimated scf accuracy    <       0.00003955 Ry

     iteration # 66     ecut=    30.00 Ry     beta= 0.40
     Davidson diagonalization with overlap
     ethr =  5.50E-09,  avg # of iterations =  2.0

     negative rho (up, down):  1.315E+00 0.000E+00

     total cpu time spent up to now is     1334.6 secs

     total energy              =   -7513.88836705 Ry
     estimated scf accuracy    <       0.00008227 Ry

     iteration # 67     ecut=    30.00 Ry     beta= 0.40
     Davidson diagonalization with overlap
     ethr =  5.50E-09,  avg # of iterations =  2.0

     negative rho (up, down):  1.316E+00 0.000E+00

     total cpu time spent up to now is     1354.2 secs

     total energy              =   -7513.88836587 Ry
     estimated scf accuracy    <       0.00002144 Ry

     iteration # 68     ecut=    30.00 Ry     beta= 0.40
     Davidson diagonalization with overlap
     ethr =  3.28E-09,  avg # of iterations =  2.0

     negative rho (up, down):  1.317E+00 0.000E+00

     total cpu time spent up to now is     1373.6 secs

     total energy              =   -7513.88837221 Ry
     estimated scf accuracy    <       0.00001799 Ry

     iteration # 69     ecut=    30.00 Ry     beta= 0.40
     Davidson diagonalization with overlap
     ethr =  2.75E-09,  avg # of iterations =  2.0

     negative rho (up, down):  1.318E+00 0.000E+00

     total cpu time spent up to now is     1393.0 secs

     total energy              =   -7513.88840337 Ry
     estimated scf accuracy    <       0.00001644 Ry

     iteration # 70     ecut=    30.00 Ry     beta= 0.40
     Davidson diagonalization with overlap
     ethr =  2.52E-09,  avg # of iterations =  2.0

     negative rho (up, down):  1.319E+00 0.000E+00

     total cpu time spent up to now is     1412.4 secs

     total energy              =   -7513.88840355 Ry
     estimated scf accuracy    <       0.00000621 Ry

     iteration # 71     ecut=    30.00 Ry     beta= 0.40
     Davidson diagonalization with overlap
     ethr =  9.52E-10,  avg # of iterations =  2.0

     negative rho (up, down):  1.320E+00 0.000E+00

     total cpu time spent up to now is     1432.0 secs

     total energy              =   -7513.88836320 Ry
     estimated scf accuracy    <       0.00000976 Ry

     iteration # 72     ecut=    30.00 Ry     beta= 0.40
     Davidson diagonalization with overlap
     ethr =  9.52E-10,  avg # of iterations =  2.0

     negative rho (up, down):  1.320E+00 0.000E+00

     total cpu time spent up to now is     1451.6 secs

     total energy              =   -7513.88841878 Ry
     estimated scf accuracy    <       0.00002075 Ry

     iteration # 73     ecut=    30.00 Ry     beta= 0.40
     Davidson diagonalization with overlap
     ethr =  9.52E-10,  avg # of iterations =  5.0

     negative rho (up, down):  1.320E+00 0.000E+00

     total cpu time spent up to now is     1471.4 secs

     total energy              =   -7513.88841831 Ry
     estimated scf accuracy    <       0.00000663 Ry

     iteration # 74     ecut=    30.00 Ry     beta= 0.40
     Davidson diagonalization with overlap
     ethr =  9.52E-10,  avg # of iterations =  6.0

     negative rho (up, down):  1.321E+00 0.000E+00

     total cpu time spent up to now is     1491.4 secs

     total energy              =   -7513.88842820 Ry
     estimated scf accuracy    <       0.00000921 Ry

     iteration # 75     ecut=    30.00 Ry     beta= 0.40
     Davidson diagonalization with overlap
     ethr =  9.52E-10,  avg # of iterations =  2.0

     negative rho (up, down):  1.321E+00 0.000E+00

     total cpu time spent up to now is     1511.0 secs

     total energy              =   -7513.88843511 Ry
     estimated scf accuracy    <       0.00000465 Ry

     iteration # 76     ecut=    30.00 Ry     beta= 0.40
     Davidson diagonalization with overlap
     ethr =  7.12E-10,  avg # of iterations =  2.0

     negative rho (up, down):  1.321E+00 0.000E+00

     total cpu time spent up to now is     1530.5 secs

     total energy              =   -7513.88843604 Ry
     estimated scf accuracy    <       0.00000340 Ry

     iteration # 77     ecut=    30.00 Ry     beta= 0.40
     Davidson diagonalization with overlap
     ethr =  5.20E-10,  avg # of iterations =  2.0

     negative rho (up, down):  1.322E+00 0.000E+00

     total cpu time spent up to now is     1550.1 secs

     total energy              =   -7513.88843309 Ry
     estimated scf accuracy    <       0.00000093 Ry

     iteration # 78     ecut=    30.00 Ry     beta= 0.40
     Davidson diagonalization with overlap
     ethr =  1.43E-10,  avg # of iterations =  3.0

     negative rho (up, down):  1.322E+00 0.000E+00

     total cpu time spent up to now is     1570.0 secs

     total energy              =   -7513.88844025 Ry
     estimated scf accuracy    <       0.00000061 Ry

     iteration # 79     ecut=    30.00 Ry     beta= 0.40
     Davidson diagonalization with overlap
     ethr =  9.29E-11,  avg # of iterations =  3.0

     negative rho (up, down):  1.322E+00 0.000E+00

     total cpu time spent up to now is     1589.8 secs

     total energy              =   -7513.88844486 Ry
     estimated scf accuracy    <       0.00000032 Ry

     iteration # 80     ecut=    30.00 Ry     beta= 0.40
     Davidson diagonalization with overlap
     ethr =  4.86E-11,  avg # of iterations =  3.0

     negative rho (up, down):  1.322E+00 0.000E+00

     total cpu time spent up to now is     1609.5 secs

     total energy              =   -7513.88844795 Ry
     estimated scf accuracy    <       0.00000039 Ry

     iteration # 81     ecut=    30.00 Ry     beta= 0.40
     Davidson diagonalization with overlap
     ethr =  4.86E-11,  avg # of iterations =  3.0

     negative rho (up, down):  1.323E+00 0.000E+00

     total cpu time spent up to now is     1629.2 secs

     total energy              =   -7513.88844024 Ry
     estimated scf accuracy    <       0.00000042 Ry

     iteration # 82     ecut=    30.00 Ry     beta= 0.40
     Davidson diagonalization with overlap
     ethr =  4.86E-11,  avg # of iterations =  3.0

     negative rho (up, down):  1.323E+00 0.000E+00

     total cpu time spent up to now is     1649.2 secs

     total energy              =   -7513.88845499 Ry
     estimated scf accuracy    <       0.00000511 Ry

     iteration # 83     ecut=    30.00 Ry     beta= 0.40
     Davidson diagonalization with overlap
     ethr =  4.86E-11,  avg # of iterations =  3.0

     negative rho (up, down):  1.323E+00 0.000E+00

     total cpu time spent up to now is     1669.2 secs

     total energy              =   -7513.88845741 Ry
     estimated scf accuracy    <       0.00000129 Ry

     iteration # 84     ecut=    30.00 Ry     beta= 0.40
     Davidson diagonalization with overlap
     ethr =  4.86E-11,  avg # of iterations =  3.0

     negative rho (up, down):  1.323E+00 0.000E+00

     total cpu time spent up to now is     1688.9 secs

     total energy              =   -7513.88845869 Ry
     estimated scf accuracy    <       0.00000120 Ry

     iteration # 85     ecut=    30.00 Ry     beta= 0.40
     Davidson diagonalization with overlap
     ethr =  4.86E-11,  avg # of iterations =  3.0

     negative rho (up, down):  1.323E+00 0.000E+00

     total cpu time spent up to now is     1708.8 secs

     total energy              =   -7513.88845659 Ry
     estimated scf accuracy    <       0.00000187 Ry

     iteration # 86     ecut=    30.00 Ry     beta= 0.40
     Davidson diagonalization with overlap
     ethr =  4.86E-11,  avg # of iterations =  3.0

     negative rho (up, down):  1.323E+00 0.000E+00

     total cpu time spent up to now is     1728.5 secs

     total energy              =   -7513.88844934 Ry
     estimated scf accuracy    <       0.00000326 Ry

     iteration # 87     ecut=    30.00 Ry     beta= 0.40
     Davidson diagonalization with overlap
     ethr =  4.86E-11,  avg # of iterations =  3.0

     negative rho (up, down):  1.324E+00 0.000E+00

     total cpu time spent up to now is     1748.3 secs

     total energy              =   -7513.88844435 Ry
     estimated scf accuracy    <       0.00000542 Ry

     iteration # 88     ecut=    30.00 Ry     beta= 0.40
     Davidson diagonalization with overlap
     ethr =  4.86E-11,  avg # of iterations =  3.0

     negative rho (up, down):  1.324E+00 0.000E+00

     total cpu time spent up to now is     1768.1 secs

     total energy              =   -7513.88844880 Ry
     estimated scf accuracy    <       0.00000687 Ry

     iteration # 89     ecut=    30.00 Ry     beta= 0.40
     Davidson diagonalization with overlap
     ethr =  4.86E-11,  avg # of iterations =  3.0

     negative rho (up, down):  1.324E+00 0.000E+00

     total cpu time spent up to now is     1787.9 secs

     total energy              =   -7513.88843805 Ry
     estimated scf accuracy    <       0.00000646 Ry

     iteration # 90     ecut=    30.00 Ry     beta= 0.40
     Davidson diagonalization with overlap
     ethr =  4.86E-11,  avg # of iterations =  3.0

     negative rho (up, down):  1.324E+00 0.000E+00

     total cpu time spent up to now is     1807.6 secs

     total energy              =   -7513.88844565 Ry
     estimated scf accuracy    <       0.00000885 Ry

     iteration # 91     ecut=    30.00 Ry     beta= 0.40
     Davidson diagonalization with overlap
     ethr =  4.86E-11,  avg # of iterations =  3.0

     negative rho (up, down):  1.324E+00 0.000E+00

     total cpu time spent up to now is     1827.3 secs

     total energy              =   -7513.88843981 Ry
     estimated scf accuracy    <       0.00000791 Ry

     iteration # 92     ecut=    30.00 Ry     beta= 0.40
     Davidson diagonalization with overlap
     ethr =  4.86E-11,  avg # of iterations =  3.0

     negative rho (up, down):  1.324E+00 0.000E+00

     total cpu time spent up to now is     1847.0 secs

     total energy              =   -7513.88844933 Ry
     estimated scf accuracy    <       0.00000939 Ry

     iteration # 93     ecut=    30.00 Ry     beta= 0.40
     Davidson diagonalization with overlap
     ethr =  4.86E-11,  avg # of iterations =  3.0

     negative rho (up, down):  1.324E+00 0.000E+00

     total cpu time spent up to now is     1866.7 secs

     total energy              =   -7513.88842044 Ry
     estimated scf accuracy    <       0.00000817 Ry

     iteration # 94     ecut=    30.00 Ry     beta= 0.40
     Davidson diagonalization with overlap
     ethr =  4.86E-11,  avg # of iterations =  3.0

     negative rho (up, down):  1.324E+00 0.000E+00

     total cpu time spent up to now is     1886.4 secs

     total energy              =   -7513.88844322 Ry
     estimated scf accuracy    <       0.00001334 Ry

     iteration # 95     ecut=    30.00 Ry     beta= 0.40
     Davidson diagonalization with overlap
     ethr =  4.86E-11,  avg # of iterations =  3.0

     negative rho (up, down):  1.324E+00 0.000E+00

     total cpu time spent up to now is     1906.1 secs

     total energy              =   -7513.88843568 Ry
     estimated scf accuracy    <       0.00001011 Ry

     iteration # 96     ecut=    30.00 Ry     beta= 0.40
     Davidson diagonalization with overlap
     ethr =  4.86E-11,  avg # of iterations =  3.0

     negative rho (up, down):  1.324E+00 0.000E+00

     total cpu time spent up to now is     1925.7 secs

     total energy              =   -7513.88842268 Ry
     estimated scf accuracy    <       0.00001176 Ry

     iteration # 97     ecut=    30.00 Ry     beta= 0.40
     Davidson diagonalization with overlap
     ethr =  4.86E-11,  avg # of iterations =  3.0

     negative rho (up, down):  1.324E+00 0.000E+00

     total cpu time spent up to now is     1945.3 secs

     total energy              =   -7513.88842288 Ry
     estimated scf accuracy    <       0.00001423 Ry

     iteration # 98     ecut=    30.00 Ry     beta= 0.40
     Davidson diagonalization with overlap
     ethr =  4.86E-11,  avg # of iterations =  3.0

     negative rho (up, down):  1.324E+00 0.000E+00

     total cpu time spent up to now is     1965.0 secs

     total energy              =   -7513.88846035 Ry
     estimated scf accuracy    <       0.00001464 Ry

     iteration # 99     ecut=    30.00 Ry     beta= 0.40
     Davidson diagonalization with overlap
     ethr =  4.86E-11,  avg # of iterations =  3.0

     negative rho (up, down):  1.324E+00 0.000E+00

     total cpu time spent up to now is     1984.7 secs

     total energy              =   -7513.88845685 Ry
     estimated scf accuracy    <       0.00000907 Ry

     iteration #100     ecut=    30.00 Ry     beta= 0.40
     Davidson diagonalization with overlap
     ethr =  4.86E-11,  avg # of iterations =  3.0

     negative rho (up, down):  1.324E+00 0.000E+00

     total cpu time spent up to now is     2004.3 secs

     total energy              =   -7513.88845409 Ry
     estimated scf accuracy    <       0.00001009 Ry

     iteration #101     ecut=    30.00 Ry     beta= 0.40
     Davidson diagonalization with overlap
     ethr =  4.86E-11,  avg # of iterations =  3.0

     negative rho (up, down):  1.324E+00 0.000E+00

     total cpu time spent up to now is     2024.0 secs

     total energy              =   -7513.88843861 Ry
     estimated scf accuracy    <       0.00001099 Ry

     iteration #102     ecut=    30.00 Ry     beta= 0.40
     Davidson diagonalization with overlap
     ethr =  4.86E-11,  avg # of iterations =  3.0

     negative rho (up, down):  1.324E+00 0.000E+00

     total cpu time spent up to now is     2043.7 secs

     total energy              =   -7513.88847260 Ry
     estimated scf accuracy    <       0.00001388 Ry

     iteration #103     ecut=    30.00 Ry     beta= 0.40
     Davidson diagonalization with overlap
     ethr =  4.86E-11,  avg # of iterations =  3.0

     negative rho (up, down):  1.324E+00 0.000E+00

     total cpu time spent up to now is     2063.7 secs

     total energy              =   -7513.88846475 Ry
     estimated scf accuracy    <       0.00000890 Ry

     iteration #104     ecut=    30.00 Ry     beta= 0.40
     Davidson diagonalization with overlap
     ethr =  4.86E-11,  avg # of iterations =  3.0

     negative rho (up, down):  1.325E+00 0.000E+00

     total cpu time spent up to now is     2083.4 secs

     total energy              =   -7513.88845019 Ry
     estimated scf accuracy    <       0.00001062 Ry

     iteration #105     ecut=    30.00 Ry     beta= 0.40
     Davidson diagonalization with overlap
     ethr =  4.86E-11,  avg # of iterations =  3.0

     negative rho (up, down):  1.325E+00 0.000E+00

     total cpu time spent up to now is     2103.0 secs

     total energy              =   -7513.88845719 Ry
     estimated scf accuracy    <       0.00001339 Ry

     iteration #106     ecut=    30.00 Ry     beta= 0.40
     Davidson diagonalization with overlap
     ethr =  4.86E-11,  avg # of iterations =  3.0

     negative rho (up, down):  1.325E+00 0.000E+00

     total cpu time spent up to now is     2122.8 secs

     total energy              =   -7513.88844127 Ry
     estimated scf accuracy    <       0.00001287 Ry

     iteration #107     ecut=    30.00 Ry     beta= 0.40
     Davidson diagonalization with overlap
     ethr =  4.86E-11,  avg # of iterations =  3.0

     negative rho (up, down):  1.325E+00 0.000E+00

     total cpu time spent up to now is     2142.7 secs

     total energy              =   -7513.88839215 Ry
     estimated scf accuracy    <       0.00001574 Ry

     iteration #108     ecut=    30.00 Ry     beta= 0.40
     Davidson diagonalization with overlap
     ethr =  4.86E-11,  avg # of iterations =  3.0

     negative rho (up, down):  1.325E+00 0.000E+00

     total cpu time spent up to now is     2162.5 secs

     total energy              =   -7513.88837311 Ry
     estimated scf accuracy    <       0.00002338 Ry

     iteration #109     ecut=    30.00 Ry     beta= 0.40
     Davidson diagonalization with overlap
     ethr =  4.86E-11,  avg # of iterations =  3.0

     negative rho (up, down):  1.325E+00 0.000E+00

     total cpu time spent up to now is     2182.4 secs

     total energy              =   -7513.88836941 Ry
     estimated scf accuracy    <       0.00002662 Ry

     iteration #110     ecut=    30.00 Ry     beta= 0.40
     Davidson diagonalization with overlap
     ethr =  4.86E-11,  avg # of iterations =  3.0

     negative rho (up, down):  1.325E+00 0.000E+00

     total cpu time spent up to now is     2203.0 secs

     total energy              =   -7513.88851295 Ry
     estimated scf accuracy    <       0.00002760 Ry

     iteration #111     ecut=    30.00 Ry     beta= 0.40
     Davidson diagonalization with overlap
     ethr =  4.86E-11,  avg # of iterations =  5.0

     negative rho (up, down):  1.325E+00 0.000E+00

     total cpu time spent up to now is     2223.9 secs

     total energy              =   -7513.88843530 Ry
     estimated scf accuracy    <       0.00000636 Ry

     iteration #112     ecut=    30.00 Ry     beta= 0.40
     Davidson diagonalization with overlap
     ethr =  4.86E-11,  avg # of iterations =  6.0

     negative rho (up, down):  1.325E+00 0.000E+00

     total cpu time spent up to now is     2244.6 secs

     total energy              =   -7513.88849390 Ry
     estimated scf accuracy    <       0.00001882 Ry

     iteration #113     ecut=    30.00 Ry     beta= 0.40
     Davidson diagonalization with overlap
     ethr =  4.86E-11,  avg # of iterations =  5.0

     negative rho (up, down):  1.325E+00 0.000E+00

     total cpu time spent up to now is     2265.5 secs

     total energy              =   -7513.88848891 Ry
     estimated scf accuracy    <       0.00001024 Ry

     iteration #114     ecut=    30.00 Ry     beta= 0.40
     Davidson diagonalization with overlap
     ethr =  4.86E-11,  avg # of iterations =  5.0

     negative rho (up, down):  1.325E+00 0.000E+00

     total cpu time spent up to now is     2286.1 secs

     total energy              =   -7513.88851707 Ry
     estimated scf accuracy    <       0.00001151 Ry

     iteration #115     ecut=    30.00 Ry     beta= 0.40
     Davidson diagonalization with overlap
     ethr =  4.86E-11,  avg # of iterations =  5.0

     negative rho (up, down):  1.325E+00 0.000E+00

     total cpu time spent up to now is     2306.8 secs

     total energy              =   -7513.88848795 Ry
     estimated scf accuracy    <       0.00000705 Ry

     iteration #116     ecut=    30.00 Ry     beta= 0.40
     Davidson diagonalization with overlap
     ethr =  4.86E-11,  avg # of iterations =  5.0

     negative rho (up, down):  1.325E+00 0.000E+00

     total cpu time spent up to now is     2327.5 secs

     total energy              =   -7513.88851753 Ry
     estimated scf accuracy    <       0.00001214 Ry

     iteration #117     ecut=    30.00 Ry     beta= 0.40
     Davidson diagonalization with overlap
     ethr =  4.86E-11,  avg # of iterations =  5.0

     negative rho (up, down):  1.325E+00 0.000E+00

     total cpu time spent up to now is     2347.6 secs

     total energy              =   -7513.88853356 Ry
     estimated scf accuracy    <       0.00000781 Ry

     iteration #118     ecut=    30.00 Ry     beta= 0.40
     Davidson diagonalization with overlap
     ethr =  4.86E-11,  avg # of iterations =  5.0

     negative rho (up, down):  1.325E+00 0.000E+00

     total cpu time spent up to now is     2368.4 secs

     total energy              =   -7513.88854881 Ry
     estimated scf accuracy    <       0.00000075 Ry

     iteration #119     ecut=    30.00 Ry     beta= 0.40
     Davidson diagonalization with overlap
     ethr =  4.86E-11,  avg # of iterations =  5.0

     negative rho (up, down):  1.325E+00 0.000E+00

     total cpu time spent up to now is     2389.4 secs

     total energy              =   -7513.88854786 Ry
     estimated scf accuracy    <       0.00000228 Ry

     iteration #120     ecut=    30.00 Ry     beta= 0.40
     Davidson diagonalization with overlap
     ethr =  4.86E-11,  avg # of iterations =  3.0

     negative rho (up, down):  1.325E+00 0.000E+00

     total cpu time spent up to now is     2409.7 secs

     total energy              =   -7513.88855549 Ry
     estimated scf accuracy    <       0.00000300 Ry

     iteration #121     ecut=    30.00 Ry     beta= 0.40
     Davidson diagonalization with overlap
     ethr =  4.86E-11,  avg # of iterations =  3.0

     negative rho (up, down):  1.325E+00 0.000E+00

     total cpu time spent up to now is     2430.0 secs

     total energy              =   -7513.88855657 Ry
     estimated scf accuracy    <       0.00000019 Ry

     iteration #122     ecut=    30.00 Ry     beta= 0.40
     Davidson diagonalization with overlap
     ethr =  2.91E-11,  avg # of iterations =  3.0

     negative rho (up, down):  1.325E+00 0.000E+00

     total cpu time spent up to now is     2450.0 secs

     total energy              =   -7513.88856019 Ry
     estimated scf accuracy    <       0.00000171 Ry

     iteration #123     ecut=    30.00 Ry     beta= 0.40
     Davidson diagonalization with overlap
     ethr =  2.91E-11,  avg # of iterations =  3.0

     negative rho (up, down):  1.325E+00 0.000E+00

     total cpu time spent up to now is     2469.8 secs

     total energy              =   -7513.88856240 Ry
     estimated scf accuracy    <       0.00000029 Ry

     iteration #124     ecut=    30.00 Ry     beta= 0.40
     Davidson diagonalization with overlap
     ethr =  2.91E-11,  avg # of iterations =  3.0

     negative rho (up, down):  1.325E+00 0.000E+00

     total cpu time spent up to now is     2489.5 secs

     total energy              =   -7513.88856448 Ry
     estimated scf accuracy    <       0.00000088 Ry

     iteration #125     ecut=    30.00 Ry     beta= 0.40
     Davidson diagonalization with overlap
     ethr =  2.91E-11,  avg # of iterations =  3.0

     negative rho (up, down):  1.325E+00 0.000E+00

     total cpu time spent up to now is     2509.3 secs

     total energy              =   -7513.88856579 Ry
     estimated scf accuracy    <       0.00000069 Ry

     iteration #126     ecut=    30.00 Ry     beta= 0.40
     Davidson diagonalization with overlap
     ethr =  2.91E-11,  avg # of iterations =  3.0

     negative rho (up, down):  1.325E+00 0.000E+00

     total cpu time spent up to now is     2528.8 secs

     total energy              =   -7513.88855023 Ry
     estimated scf accuracy    <       0.00000025 Ry

     iteration #127     ecut=    30.00 Ry     beta= 0.40
     Davidson diagonalization with overlap
     ethr =  2.91E-11,  avg # of iterations =  3.0

     negative rho (up, down):  1.325E+00 0.000E+00

     total cpu time spent up to now is     2548.9 secs

     total energy              =   -7513.88856878 Ry
     estimated scf accuracy    <       0.00000058 Ry

     iteration #128     ecut=    30.00 Ry     beta= 0.40
     Davidson diagonalization with overlap
     ethr =  2.91E-11,  avg # of iterations =  3.0

     negative rho (up, down):  1.325E+00 0.000E+00

     total cpu time spent up to now is     2569.0 secs

     total energy              =   -7513.88857099 Ry
     estimated scf accuracy    <       0.00000023 Ry

     iteration #129     ecut=    30.00 Ry     beta= 0.40
     Davidson diagonalization with overlap
     ethr =  2.91E-11,  avg # of iterations =  3.0

     negative rho (up, down):  1.325E+00 0.000E+00

     total cpu time spent up to now is     2588.6 secs

     total energy              =   -7513.88857258 Ry
     estimated scf accuracy    <       0.00000040 Ry

     iteration #130     ecut=    30.00 Ry     beta= 0.40
     Davidson diagonalization with overlap
     ethr =  2.91E-11,  avg # of iterations =  3.0

     negative rho (up, down):  1.325E+00 0.000E+00

     total cpu time spent up to now is     2608.4 secs

     total energy              =   -7513.88857413 Ry
     estimated scf accuracy    <       0.00000039 Ry

     iteration #131     ecut=    30.00 Ry     beta= 0.40
     Davidson diagonalization with overlap
     ethr =  2.91E-11,  avg # of iterations =  3.0

     negative rho (up, down):  1.325E+00 0.000E+00

     total cpu time spent up to now is     2628.0 secs

     total energy              =   -7513.88857567 Ry
     estimated scf accuracy    <       0.00000038 Ry

     iteration #132     ecut=    30.00 Ry     beta= 0.40
     Davidson diagonalization with overlap
     ethr =  2.91E-11,  avg # of iterations =  3.0

     negative rho (up, down):  1.325E+00 0.000E+00

     total cpu time spent up to now is     2647.8 secs

     total energy              =   -7513.88857563 Ry
     estimated scf accuracy    <       0.00000054 Ry

     iteration #133     ecut=    30.00 Ry     beta= 0.40
     Davidson diagonalization with overlap
     ethr =  2.91E-11,  avg # of iterations =  3.0

     negative rho (up, down):  1.325E+00 0.000E+00

     total cpu time spent up to now is     2667.4 secs

     total energy              =   -7513.88857425 Ry
     estimated scf accuracy    <       0.00000125 Ry

     iteration #134     ecut=    30.00 Ry     beta= 0.40
     Davidson diagonalization with overlap
     ethr =  2.91E-11,  avg # of iterations =  3.0

     negative rho (up, down):  1.325E+00 0.000E+00

     total cpu time spent up to now is     2687.1 secs

     total energy              =   -7513.88856822 Ry
     estimated scf accuracy    <       0.00000201 Ry

     iteration #135     ecut=    30.00 Ry     beta= 0.40
     Davidson diagonalization with overlap
     ethr =  2.91E-11,  avg # of iterations =  3.0

     negative rho (up, down):  1.325E+00 0.000E+00

     total cpu time spent up to now is     2706.9 secs

     total energy              =   -7513.88856532 Ry
     estimated scf accuracy    <       0.00000355 Ry

     iteration #136     ecut=    30.00 Ry     beta= 0.40
     Davidson diagonalization with overlap
     ethr =  2.91E-11,  avg # of iterations =  3.0

     negative rho (up, down):  1.326E+00 0.000E+00

     total cpu time spent up to now is     2726.7 secs

     total energy              =   -7513.88855708 Ry
     estimated scf accuracy    <       0.00000435 Ry

     iteration #137     ecut=    30.00 Ry     beta= 0.40
     Davidson diagonalization with overlap
     ethr =  2.91E-11,  avg # of iterations =  3.0

     negative rho (up, down):  1.326E+00 0.000E+00

     total cpu time spent up to now is     2746.5 secs

     total energy              =   -7513.88854446 Ry
     estimated scf accuracy    <       0.00000601 Ry

     iteration #138     ecut=    30.00 Ry     beta= 0.40
     Davidson diagonalization with overlap
     ethr =  2.91E-11,  avg # of iterations =  3.0

     negative rho (up, down):  1.326E+00 0.000E+00

     total cpu time spent up to now is     2766.1 secs

     total energy              =   -7513.88855855 Ry
     estimated scf accuracy    <       0.00000824 Ry

     iteration #139     ecut=    30.00 Ry     beta= 0.40
     Davidson diagonalization with overlap
     ethr =  2.91E-11,  avg # of iterations =  3.0

     negative rho (up, down):  1.326E+00 0.000E+00

     total cpu time spent up to now is     2785.8 secs

     total energy              =   -7513.88854947 Ry
     estimated scf accuracy    <       0.00000619 Ry

     iteration #140     ecut=    30.00 Ry     beta= 0.40
     Davidson diagonalization with overlap
     ethr =  2.91E-11,  avg # of iterations =  3.0

     negative rho (up, down):  1.326E+00 0.000E+00

     total cpu time spent up to now is     2805.5 secs

     total energy              =   -7513.88854924 Ry
     estimated scf accuracy    <       0.00000782 Ry

     iteration #141     ecut=    30.00 Ry     beta= 0.40
     Davidson diagonalization with overlap
     ethr =  2.91E-11,  avg # of iterations =  3.0

     negative rho (up, down):  1.326E+00 0.000E+00

     total cpu time spent up to now is     2825.2 secs

     total energy              =   -7513.88853740 Ry
     estimated scf accuracy    <       0.00000803 Ry

     iteration #142     ecut=    30.00 Ry     beta= 0.40
     Davidson diagonalization with overlap
     ethr =  2.91E-11,  avg # of iterations =  3.0

     negative rho (up, down):  1.326E+00 0.000E+00

     total cpu time spent up to now is     2844.8 secs

     total energy              =   -7513.88853202 Ry
     estimated scf accuracy    <       0.00001002 Ry

     iteration #143     ecut=    30.00 Ry     beta= 0.40
     Davidson diagonalization with overlap
     ethr =  2.91E-11,  avg # of iterations =  3.0

     negative rho (up, down):  1.326E+00 0.000E+00

     total cpu time spent up to now is     2864.6 secs

     total energy              =   -7513.88851520 Ry
     estimated scf accuracy    <       0.00001094 Ry

     iteration #144     ecut=    30.00 Ry     beta= 0.40
     Davidson diagonalization with overlap
     ethr =  2.91E-11,  avg # of iterations =  3.0

     negative rho (up, down):  1.326E+00 0.000E+00

     total cpu time spent up to now is     2884.3 secs

     total energy              =   -7513.88852617 Ry
     estimated scf accuracy    <       0.00001352 Ry

     iteration #145     ecut=    30.00 Ry     beta= 0.40
     Davidson diagonalization with overlap
     ethr =  2.91E-11,  avg # of iterations =  3.0

     negative rho (up, down):  1.326E+00 0.000E+00

     total cpu time spent up to now is     2904.1 secs

     total energy              =   -7513.88854350 Ry
     estimated scf accuracy    <       0.00001205 Ry

     iteration #146     ecut=    30.00 Ry     beta= 0.40
     Davidson diagonalization with overlap
     ethr =  2.91E-11,  avg # of iterations =  3.0

     negative rho (up, down):  1.326E+00 0.000E+00

     total cpu time spent up to now is     2924.0 secs

     total energy              =   -7513.88854403 Ry
     estimated scf accuracy    <       0.00000958 Ry

     iteration #147     ecut=    30.00 Ry     beta= 0.40
     Davidson diagonalization with overlap
     ethr =  2.91E-11,  avg # of iterations =  3.0

     negative rho (up, down):  1.326E+00 0.000E+00

     total cpu time spent up to now is     2943.7 secs

     total energy              =   -7513.88851051 Ry
     estimated scf accuracy    <       0.00000965 Ry

     iteration #148     ecut=    30.00 Ry     beta= 0.40
     Davidson diagonalization with overlap
     ethr =  2.91E-11,  avg # of iterations =  3.0

     negative rho (up, down):  1.326E+00 0.000E+00

     total cpu time spent up to now is     2963.5 secs

     total energy              =   -7513.88850191 Ry
     estimated scf accuracy    <       0.00001455 Ry

     iteration #149     ecut=    30.00 Ry     beta= 0.40
     Davidson diagonalization with overlap
     ethr =  2.91E-11,  avg # of iterations =  3.0

     negative rho (up, down):  1.326E+00 0.000E+00

     total cpu time spent up to now is     2983.2 secs

     total energy              =   -7513.88850561 Ry
     estimated scf accuracy    <       0.00001585 Ry

     iteration #150     ecut=    30.00 Ry     beta= 0.40
     Davidson diagonalization with overlap
     ethr =  2.91E-11,  avg # of iterations =  3.0

     negative rho (up, down):  1.326E+00 0.000E+00

     total cpu time spent up to now is     3003.0 secs

     total energy              =   -7513.88850782 Ry
     estimated scf accuracy    <       0.00001539 Ry

     iteration #151     ecut=    30.00 Ry     beta= 0.40
     Davidson diagonalization with overlap
     ethr =  2.91E-11,  avg # of iterations =  5.0

     negative rho (up, down):  1.326E+00 0.000E+00

     total cpu time spent up to now is     3023.0 secs

     total energy              =   -7513.88849876 Ry
     estimated scf accuracy    <       0.00001527 Ry

     iteration #152     ecut=    30.00 Ry     beta= 0.40
     Davidson diagonalization with overlap
     ethr =  2.91E-11,  avg # of iterations =  5.0

     negative rho (up, down):  1.326E+00 0.000E+00

     total cpu time spent up to now is     3043.0 secs

     total energy              =   -7513.88858199 Ry
     estimated scf accuracy    <       0.00001664 Ry

     iteration #153     ecut=    30.00 Ry     beta= 0.40
     Davidson diagonalization with overlap
     ethr =  2.91E-11,  avg # of iterations =  6.0

     negative rho (up, down):  1.326E+00 0.000E+00

     total cpu time spent up to now is     3063.6 secs

     total energy              =   -7513.88848344 Ry
     estimated scf accuracy    <       0.00000866 Ry

     iteration #154     ecut=    30.00 Ry     beta= 0.40
     Davidson diagonalization with overlap
     ethr =  2.91E-11,  avg # of iterations =  6.0

     negative rho (up, down):  1.326E+00 0.000E+00

     total cpu time spent up to now is     3084.4 secs

     total energy              =   -7513.88846859 Ry
     estimated scf accuracy    <       0.00001853 Ry

     iteration #155     ecut=    30.00 Ry     beta= 0.40
     Davidson diagonalization with overlap
     ethr =  2.91E-11,  avg # of iterations =  3.0

     negative rho (up, down):  1.326E+00 0.000E+00

     total cpu time spent up to now is     3104.1 secs

     total energy              =   -7513.88845453 Ry
     estimated scf accuracy    <       0.00002075 Ry

     iteration #156     ecut=    30.00 Ry     beta= 0.40
     Davidson diagonalization with overlap
     ethr =  2.91E-11,  avg # of iterations =  6.0

     negative rho (up, down):  1.326E+00 0.000E+00

     total cpu time spent up to now is     3124.4 secs

     total energy              =   -7513.88848828 Ry
     estimated scf accuracy    <       0.00002392 Ry

     iteration #157     ecut=    30.00 Ry     beta= 0.40
     Davidson diagonalization with overlap
     ethr =  2.91E-11,  avg # of iterations =  9.0

     negative rho (up, down):  1.326E+00 0.000E+00

     total cpu time spent up to now is     3145.6 secs

     total energy              =   -7513.88851136 Ry
     estimated scf accuracy    <       0.00003195 Ry

     iteration #158     ecut=    30.00 Ry     beta= 0.40
     Davidson diagonalization with overlap
     ethr =  2.91E-11,  avg # of iterations = 10.0

     negative rho (up, down):  1.327E+00 0.000E+00

     total cpu time spent up to now is     3167.0 secs

     total energy              =   -7513.88842531 Ry
     estimated scf accuracy    <       0.00002517 Ry

     iteration #159     ecut=    30.00 Ry     beta= 0.40
     Davidson diagonalization with overlap
     ethr =  2.91E-11,  avg # of iterations =  9.0

     negative rho (up, down):  1.326E+00 0.000E+00

     total cpu time spent up to now is     3188.2 secs

     total energy              =   -7513.88855734 Ry
     estimated scf accuracy    <       0.00002741 Ry

     iteration #160     ecut=    30.00 Ry     beta= 0.40
     Davidson diagonalization with overlap
     ethr =  2.91E-11,  avg # of iterations =  7.0

     negative rho (up, down):  1.326E+00 0.000E+00

     total cpu time spent up to now is     3209.0 secs

     total energy              =   -7513.88856810 Ry
     estimated scf accuracy    <       0.00001247 Ry

     iteration #161     ecut=    30.00 Ry     beta= 0.40
     Davidson diagonalization with overlap
     ethr =  2.91E-11,  avg # of iterations =  7.0

     negative rho (up, down):  1.326E+00 0.000E+00

     total cpu time spent up to now is     3229.8 secs

     total energy              =   -7513.88857853 Ry
     estimated scf accuracy    <       0.00000856 Ry

     iteration #162     ecut=    30.00 Ry     beta= 0.40
     Davidson diagonalization with overlap
     ethr =  2.91E-11,  avg # of iterations =  6.0

     negative rho (up, down):  1.326E+00 0.000E+00

     total cpu time spent up to now is     3250.0 secs

     total energy              =   -7513.88857629 Ry
     estimated scf accuracy    <       0.00000534 Ry

     iteration #163     ecut=    30.00 Ry     beta= 0.40
     Davidson diagonalization with overlap
     ethr =  2.91E-11,  avg # of iterations =  6.0

     negative rho (up, down):  1.326E+00 0.000E+00

     total cpu time spent up to now is     3270.8 secs

     total energy              =   -7513.88860906 Ry
     estimated scf accuracy    <       0.00000360 Ry

     iteration #164     ecut=    30.00 Ry     beta= 0.40
     Davidson diagonalization with overlap
     ethr =  2.91E-11,  avg # of iterations =  8.0

     negative rho (up, down):  1.326E+00 0.000E+00

     total cpu time spent up to now is     3291.3 secs

     total energy              =   -7513.88860983 Ry
     estimated scf accuracy    <       0.00000046 Ry

     iteration #165     ecut=    30.00 Ry     beta= 0.40
     Davidson diagonalization with overlap
     ethr =  2.91E-11,  avg # of iterations =  6.0

     negative rho (up, down):  1.326E+00 0.000E+00

     total cpu time spent up to now is     3311.5 secs

     total energy              =   -7513.88861010 Ry
     estimated scf accuracy    <       0.00000053 Ry

     iteration #166     ecut=    30.00 Ry     beta= 0.40
     Davidson diagonalization with overlap
     ethr =  2.91E-11,  avg # of iterations =  6.0

     negative rho (up, down):  1.326E+00 0.000E+00

     total cpu time spent up to now is     3331.5 secs

     total energy              =   -7513.88861030 Ry
     estimated scf accuracy    <       0.00000028 Ry

     iteration #167     ecut=    30.00 Ry     beta= 0.40
     Davidson diagonalization with overlap
     ethr =  2.91E-11,  avg # of iterations =  3.0

     negative rho (up, down):  1.326E+00 0.000E+00

     total cpu time spent up to now is     3351.1 secs

     total energy              =   -7513.88861041 Ry
     estimated scf accuracy    <       0.00000010 Ry

     iteration #168     ecut=    30.00 Ry     beta= 0.40
     Davidson diagonalization with overlap
     ethr =  1.53E-11,  avg # of iterations =  3.0

     negative rho (up, down):  1.326E+00 0.000E+00

     total cpu time spent up to now is     3370.7 secs

     total energy              =   -7513.88861048 Ry
     estimated scf accuracy    <       0.00000013 Ry

     iteration #169     ecut=    30.00 Ry     beta= 0.40
     Davidson diagonalization with overlap
     ethr =  1.53E-11,  avg # of iterations =  3.0

     negative rho (up, down):  1.326E+00 0.000E+00

     total cpu time spent up to now is     3390.5 secs

     total energy              =   -7513.88860958 Ry
     estimated scf accuracy    <       0.00000016 Ry

     iteration #170     ecut=    30.00 Ry     beta= 0.40
     Davidson diagonalization with overlap
     ethr =  1.53E-11,  avg # of iterations =  3.0

     negative rho (up, down):  1.326E+00 0.000E+00

     total cpu time spent up to now is     3410.1 secs

     total energy              =   -7513.88860699 Ry
     estimated scf accuracy    <       0.00000044 Ry

     iteration #171     ecut=    30.00 Ry     beta= 0.40
     Davidson diagonalization with overlap
     ethr =  1.53E-11,  avg # of iterations =  3.0

     negative rho (up, down):  1.326E+00 0.000E+00

     total cpu time spent up to now is     3429.7 secs

     total energy              =   -7513.88860885 Ry
     estimated scf accuracy    <       0.00000096 Ry

     iteration #172     ecut=    30.00 Ry     beta= 0.40
     Davidson diagonalization with overlap
     ethr =  1.53E-11,  avg # of iterations =  3.0

     negative rho (up, down):  1.326E+00 0.000E+00

     total cpu time spent up to now is     3449.3 secs

     total energy              =   -7513.88860964 Ry
     estimated scf accuracy    <       0.00000065 Ry

     iteration #173     ecut=    30.00 Ry     beta= 0.40
     Davidson diagonalization with overlap
     ethr =  1.53E-11,  avg # of iterations =  3.0

     negative rho (up, down):  1.326E+00 0.000E+00

     total cpu time spent up to now is     3469.0 secs

     total energy              =   -7513.88860938 Ry
     estimated scf accuracy    <       0.00000051 Ry

     iteration #174     ecut=    30.00 Ry     beta= 0.40
     Davidson diagonalization with overlap
     ethr =  1.53E-11,  avg # of iterations =  3.0

     negative rho (up, down):  1.326E+00 0.000E+00

     total cpu time spent up to now is     3488.7 secs

     total energy              =   -7513.88860734 Ry
     estimated scf accuracy    <       0.00000057 Ry

     iteration #175     ecut=    30.00 Ry     beta= 0.40
     Davidson diagonalization with overlap
     ethr =  1.53E-11,  avg # of iterations =  3.0

     negative rho (up, down):  1.326E+00 0.000E+00

     total cpu time spent up to now is     3508.3 secs

     total energy              =   -7513.88860043 Ry
     estimated scf accuracy    <       0.00000094 Ry

     iteration #176     ecut=    30.00 Ry     beta= 0.40
     Davidson diagonalization with overlap
     ethr =  1.53E-11,  avg # of iterations =  3.0

     negative rho (up, down):  1.326E+00 0.000E+00

     total cpu time spent up to now is     3528.0 secs

     total energy              =   -7513.88860869 Ry
     estimated scf accuracy    <       0.00000203 Ry

     iteration #177     ecut=    30.00 Ry     beta= 0.40
     Davidson diagonalization with overlap
     ethr =  1.53E-11,  avg # of iterations =  3.0

     negative rho (up, down):  1.326E+00 0.000E+00

     total cpu time spent up to now is     3547.8 secs

     total energy              =   -7513.88861094 Ry
     estimated scf accuracy    <       0.00000076 Ry

     iteration #178     ecut=    30.00 Ry     beta= 0.40
     Davidson diagonalization with overlap
     ethr =  1.53E-11,  avg # of iterations =  3.0

     negative rho (up, down):  1.326E+00 0.000E+00

     total cpu time spent up to now is     3567.5 secs

     total energy              =   -7513.88861108 Ry
     estimated scf accuracy    <       0.00000035 Ry

     iteration #179     ecut=    30.00 Ry     beta= 0.40
     Davidson diagonalization with overlap
     ethr =  1.53E-11,  avg # of iterations =  3.0

     negative rho (up, down):  1.326E+00 0.000E+00

     total cpu time spent up to now is     3587.1 secs

     total energy              =   -7513.88861146 Ry
     estimated scf accuracy    <       0.00000033 Ry

     iteration #180     ecut=    30.00 Ry     beta= 0.40
     Davidson diagonalization with overlap
     ethr =  1.53E-11,  avg # of iterations =  3.0

     negative rho (up, down):  1.326E+00 0.000E+00

     total cpu time spent up to now is     3606.8 secs

     total energy              =   -7513.88861220 Ry
     estimated scf accuracy    <       0.00000026 Ry

     iteration #181     ecut=    30.00 Ry     beta= 0.40
     Davidson diagonalization with overlap
     ethr =  1.53E-11,  avg # of iterations =  3.0

     negative rho (up, down):  1.326E+00 0.000E+00

     total cpu time spent up to now is     3626.5 secs

     End of self-consistent calculation

          k = 0.0000 0.0000 0.0000 ( 46193 PWs)   bands (ev):

   -57.8982 -57.8803 -57.8467 -57.8267 -57.8253 -57.8097 -57.8023 -57.7719
   -57.7637 -57.7550 -57.7538 -57.7385 -57.7187 -57.7115 -57.7065 -57.7031
   -57.7007 -57.6901 -57.6830 -57.6801 -57.6788 -57.6749 -57.6735 -57.6692
   -57.6623 -57.6578 -57.6527 -57.6501 -57.6476 -57.6409 -57.6163 -57.6044
   -34.3182 -34.2981 -34.2788 -34.2715 -34.2526 -34.2485 -34.2306 -34.2233
   -34.2023 -34.1945 -34.1936 -34.1818 -34.1788 -34.1733 -34.1683 -34.1637
   -34.1606 -34.1495 -34.1451 -34.1370 -34.1359 -34.1262 -34.1103 -34.1071
   -34.0974 -34.0845 -34.0780 -34.0712 -34.0698 -34.0644 -34.0574 -34.0435
   -34.0374 -34.0332 -34.0294 -34.0260 -34.0206 -34.0171 -34.0160 -34.0086
   -34.0067 -33.9987 -33.9915 -33.9894 -33.9815 -33.9716 -33.9701 -33.9642
   -33.9572 -33.9555 -33.9529 -33.9487 -33.9450 -33.9401 -33.9386 -33.9355
   -33.9320 -33.9303 -33.9269 -33.9188 -33.9143 -33.9106 -33.9056 -33.9010
   -33.8962 -33.8943 -33.8859 -33.8840 -33.8809 -33.8795 -33.8763 -33.8715
   -33.8697 -33.8689 -33.8630 -33.8586 -33.8561 -33.8504 -33.8441 -33.8384
   -33.8328 -33.8270 -33.8239 -33.8139 -33.8066 -33.8003 -33.7934 -33.7895
   -33.7766 -33.7682 -33.7637 -33.7635 -33.7480 -33.7438 -33.7312 -33.7250
   -18.4100 -18.2168 -18.1725 -18.1352 -18.1096 -17.9993 -17.9911 -17.9843
   -17.9596 -17.9573 -17.9454 -17.9328 -17.9178 -17.8882 -17.8732 -17.8563
   -17.8108 -17.7915 -17.7774 -17.7745 -17.7637 -17.7617 -17.7533 -17.7505
   -17.7416 -17.7338 -17.7282 -17.7221 -17.6951 -17.6836 -17.6412 -17.6081
   -10.8901 -10.5005 -10.4766 -10.4746 -10.3358 -10.3215 -10.2669  -9.9029
    -9.8881  -9.8856  -9.8390  -9.8352  -9.8306  -9.7664  -9.6187  -9.5598
    -9.5295  -9.5240  -9.4312  -9.4155  -9.3983  -6.5838  -5.8870  -5.8773
    -5.7912  -5.3978  -5.1381  -5.1253  -5.1149  -5.0822  -5.0727  -5.0595
    -4.9560  -4.9432  -4.9288  -4.9053  -4.9008  -4.8970  -4.8820  -4.8755
    -4.8603  -4.8476  -4.8398  -4.8382  -4.8114  -4.8049  -4.7985  -4.6816
    -4.6481  -4.6247  -4.6082  -4.5715  -4.5352  -4.5316  -4.5143  -4.5122
    -4.4977  -4.4878  -4.4550  -4.4434  -4.4139  -4.3931  -4.3905  -4.3771
    -4.3730  -4.3630  -4.1009  -4.0786  -4.0628  -4.0599  -4.0483  -4.0382
    -4.0263  -4.0085  -4.0045  -4.0008  -3.9943  -3.9859  -3.9776  -3.9695
    -3.9553  -3.9486  -3.9434  -3.9318  -3.8894  -3.8798  -3.8702  -3.8614
    -3.8490  -3.8488  -3.8254  -3.8127  -3.8063  -3.8002  -3.7883  -3.7814
    -3.7763  -3.7661  -3.7652  -3.6836  -3.6495  -3.6272  -3.6107  -3.5780
    -3.5744  -3.5252  -3.5178  -3.4882  -3.4840  -3.4363  -3.4313  -3.4062
    -3.3890  -3.3710  -3.3160  -3.3039  -3.2837  -3.0757  -3.0426  -3.0363
    -2.7510  -2.6497  -2.6292  -2.4815  -2.4548  -2.4378  -2.4296  -2.3826
    -2.3474  -2.3316  -2.2776  -2.2633  -2.2446  -2.2243  -2.2147  -2.2056
    -2.1856  -2.1797  -2.1623  -2.0849  -2.0341  -2.0040  -1.9554  -1.9207
    -1.8978  -1.3810  -1.3791  -1.3532  -1.2102  -1.1896  -1.1335  -1.1135
    -1.0236  -1.0028  -0.9927  -0.9655  -0.9458  -0.8955  -0.8726  -0.8319
    -0.7832  -0.7677  -0.7169  -0.5827   0.4021   0.4133   0.5611   0.5977
     0.6308   0.9896   1.0473   1.0821   1.1343   1.1525   1.1890   1.2626
     1.2841   1.5135   1.5743   1.5921   1.6027   1.6132   1.6373   2.0200
     2.0277   2.0319   2.0446   2.0589   2.0751   2.1006   2.1311   2.1386
     2.1421   2.1869   2.1970   2.1997   2.2168   2.2693   2.2819   2.3204
     2.3231   2.3702   2.3778   2.3945   2.4321   2.4367   2.4432   2.4517
     2.4631   2.4738   2.4920   2.5010   2.5118   2.7416   2.7505   2.7581
     2.7682   2.8208   2.8417   2.8590   2.8652   2.8787   2.8898   2.9086
     2.9141   2.9190   2.9401   2.9440   2.9477   2.9668   2.9749   2.9963

     the Fermi energy is     0.5306 ev

!    total energy              =   -7513.88861218 Ry
     estimated scf accuracy    <       0.00000006 Ry
     smearing contrib. (-TS)   =      -0.00185157 Ry
     internal energy E=F+TS    =   -7513.88676060 Ry

     The total energy is F=E-TS. E is the sum of the following terms:
     one-electron contribution =  -36470.77191619 Ry
     hartree contribution      =   18298.64683299 Ry
     xc contribution           =    -905.16369480 Ry
     ewald contribution        =   13972.02190814 Ry
     one-center paw contrib.   =   -2408.61989074 Ry

     convergence has been achieved in 181 iterations

     negative rho (up, down):  1.326E+00 0.000E+00

     Forces acting on atoms (cartesian axes, Ry/au):

     atom    1 type  1   force =     0.01396553    0.00388165    0.00619964
     atom    2 type  1   force =     0.00320970    0.00222252    0.00281928
     atom    3 type  1   force =    -0.02200120   -0.00271424    0.02039816
     atom    4 type  1   force =    -0.00372399    0.00164584    0.00310461
     atom    5 type  1   force =     0.03444572    0.00770364    0.01718243
     atom    6 type  1   force =     0.01735844    0.01846450    0.00949753
     atom    7 type  1   force =     0.00444118   -0.00050979    0.00186146
     atom    8 type  1   force =     0.00452910   -0.03438247    0.01727392
     atom    9 type  1   force =    -0.01036811    0.00345538    0.00336627
     atom   10 type  1   force =     0.00049221   -0.01196037    0.00500243
     atom   11 type  1   force =     0.00644844   -0.00214492    0.00185170
     atom   12 type  1   force =    -0.00865018   -0.01363715    0.00702983
     atom   13 type  1   force =    -0.00004878   -0.00158588   -0.00076789
     atom   14 type  1   force =    -0.01740472   -0.00181940    0.00355985
     atom   15 type  1   force =    -0.02036798    0.01857077    0.00780293
     atom   16 type  1   force =     0.00141523    0.00155071   -0.00074397
     atom   17 type  2   force =    -0.00676066   -0.00368965    0.01250203
     atom   18 type  2   force =    -0.00543780   -0.00678088   -0.00424877
     atom   19 type  2   force =     0.00587565    0.00408390    0.00960200
     atom   20 type  2   force =    -0.00241823    0.01757041    0.01038286
     atom   21 type  2   force =     0.02754555   -0.01675423   -0.02124120
     atom   22 type  2   force =     0.00394742   -0.00595270   -0.00240208
     atom   23 type  2   force =     0.01954722   -0.00593575    0.01092958
     atom   24 type  2   force =     0.00318936   -0.00533241   -0.00385362
     atom   25 type  2   force =    -0.02070174   -0.01343448    0.01201094
     atom   26 type  2   force =    -0.00531739    0.00511578   -0.00269352
     atom   27 type  2   force =    -0.00053743    0.00049716   -0.00152564
     atom   28 type  2   force =     0.02071600    0.01185759    0.02017518
     atom   29 type  2   force =     0.00552878    0.01042099   -0.05429098
     atom   30 type  2   force =    -0.00055675    0.00999472   -0.00686739
     atom   31 type  2   force =     0.00313177    0.01624812    0.00899265
     atom   32 type  2   force =    -0.01974024   -0.00503663   -0.03771995
     atom   33 type  2   force =    -0.00300677    0.02461429   -0.02013854
     atom   34 type  2   force =     0.01255678   -0.01028546    0.01082929
     atom   35 type  2   force =     0.00986139   -0.01277023    0.00842332
     atom   36 type  2   force =    -0.00948560   -0.01176847   -0.03806436
     atom   37 type  2   force =    -0.01812970    0.00238056    0.01108058
     atom   38 type  2   force =    -0.00121635    0.00402877   -0.00476295
     atom   39 type  2   force =    -0.01404830   -0.00425688   -0.00900107
     atom   40 type  2   force =    -0.00450240   -0.00022445    0.00121429
     atom   41 type  2   force =     0.00766223    0.00224764    0.00986974
     atom   42 type  2   force =     0.00765369    0.00273037   -0.00190462
     atom   43 type  2   force =    -0.00788216   -0.00275842   -0.00355961
     atom   44 type  2   force =     0.00865990   -0.00350893   -0.00534540
     atom   45 type  2   force =    -0.00146417   -0.00336948    0.00152736
     atom   46 type  2   force =    -0.00719354   -0.01901763    0.01336767
     atom   47 type  2   force =     0.00040604   -0.00045215   -0.00505317
     atom   48 type  2   force =    -0.00433054    0.01431511    0.00819806
     atom   49 type  3   force =     0.01211697   -0.03541246    0.02257056
     atom   50 type  3   force =    -0.01972555    0.02325790    0.01071117
     atom   51 type  3   force =    -0.01639479   -0.01501680   -0.04417352
     atom   52 type  3   force =    -0.01783224    0.01562525    0.01230269
     atom   53 type  3   force =    -0.02915665    0.01754575   -0.02327632
     atom   54 type  3   force =     0.00213313   -0.02871011   -0.02208947
     atom   55 type  3   force =    -0.00022619   -0.01415219    0.01482717
     atom   56 type  3   force =    -0.00245135   -0.00118247    0.00616413
     atom   57 type  3   force =     0.00926311    0.03582165   -0.03303443
     atom   58 type  3   force =    -0.04001762   -0.00814327   -0.04468026
     atom   59 type  3   force =     0.04896581    0.02346430   -0.00457043
     atom   60 type  3   force =    -0.00235485    0.03177392   -0.02057339
     atom   61 type  3   force =     0.01159660    0.02833113    0.01621299
     atom   62 type  3   force =     0.01881137   -0.01336125   -0.01896329
     atom   63 type  3   force =    -0.00108233    0.00231316    0.01513764
     atom   64 type  3   force =     0.03502033   -0.01066235   -0.03268568
     atom   65 type  3   force =     0.02338040   -0.00309005    0.01908227
     atom   66 type  3   force =     0.01458697    0.00929364   -0.00435625
     atom   67 type  3   force =     0.00788565    0.00837752    0.00232795
     atom   68 type  3   force =    -0.02869731   -0.02552625    0.02953058
     atom   69 type  3   force =     0.00382568    0.00930040   -0.01112066
     atom   70 type  3   force =    -0.00358332    0.00159922   -0.01709679
     atom   71 type  3   force =     0.00179010   -0.00399381    0.00984173
     atom   72 type  3   force =     0.01034094   -0.00288298   -0.01382295
     atom   73 type  3   force =    -0.00544827    0.00315012    0.01254659
     atom   74 type  3   force =    -0.02618583    0.01211034    0.00183942
     atom   75 type  3   force =     0.00225687   -0.00490558    0.00379874
     atom   76 type  3   force =    -0.00379667   -0.00089313   -0.01742803
     atom   77 type  3   force =    -0.02149424   -0.02064984   -0.01908818
     atom   78 type  3   force =     0.00175405   -0.01966557    0.01139401
     atom   79 type  3   force =     0.01279930    0.00050693    0.00172286
     atom   80 type  3   force =    -0.00314307    0.00431303    0.00198580
     atom   81 type  4   force =    -0.00222966   -0.00205354    0.10309246

     Total force =     0.257236     Total SCF correction =     0.000230


     Computing stress (Cartesian axis) and pressure


     negative rho (up, down):  1.326E+00 0.000E+00
          total   stress  (Ry/bohr**3)                   (kbar)     P=     -127.21
  -0.00088291   0.00000277  -0.00000119         -129.88        0.41       -0.17
   0.00000277  -0.00088528   0.00000053            0.41     -130.23        0.08
  -0.00000119   0.00000053  -0.00082602           -0.17        0.08     -121.51


     Writing all to output data dir /root/qe_scratch/cand186_A_Ti2CO2_Tl.save/ :
     XML data file, charge density, pseudopotentials, collected wavefunctions
 
     init_run     :     20.45s CPU     25.79s WALL (       1 calls)
     electrons    :   2980.05s CPU   3599.83s WALL (       1 calls)
     forces       :      1.73s CPU      1.79s WALL (       1 calls)
     stress       :      2.80s CPU      2.83s WALL (       1 calls)

     Called by init_run:
     wfcinit      :      0.97s CPU      1.16s WALL (       1 calls)
     potinit      :     18.13s CPU     22.81s WALL (       1 calls)
     hinit0       :      0.76s CPU      0.85s WALL (       1 calls)

     Called by electrons:
     c_bands      :    333.10s CPU    333.68s WALL (     181 calls)
     sum_band     :     45.42s CPU     45.56s WALL (     181 calls)
     v_of_rho     :     15.27s CPU     19.80s WALL (     182 calls)
     newd         :     57.85s CPU     58.17s WALL (     182 calls)
                                       58.17s GPU  (     182 calls)
     PAW_pot      :   2502.59s CPU   3113.89s WALL (     182 calls)
     mix_rho      :     11.76s CPU     12.12s WALL (     181 calls)

     Called by c_bands:
     init_us_2    :      1.07s CPU      1.09s WALL (     363 calls)
     cegterg      :    329.01s CPU    329.45s WALL (     181 calls)

     Called by *egterg:
     cdiaghg      :     28.16s CPU     28.20s WALL (     888 calls)
                                       28.20s GPU  (     888 calls)
     h_psi        :    130.91s CPU    131.43s WALL (     889 calls)
                                      131.37s GPU  (     889 calls)
     s_psi        :      2.46s CPU      2.48s WALL (     889 calls)
     g_psi        :      0.01s CPU      0.44s WALL (     707 calls)
                                        0.43s GPU  (     707 calls)

     Called by h_psi:
     h_psi:calbec :      0.12s CPU     49.65s WALL (     889 calls)
                                       49.65s GPU  (     889 calls)
     vloc_psi     :     41.60s CPU     41.89s WALL (     889 calls)
                                       41.89s GPU  (     889 calls)
     add_vuspsi   :      2.52s CPU     39.58s WALL (     889 calls)
                                       39.57s GPU  (     889 calls)

     General routines
     calbec       :      0.12s CPU      0.29s WALL (    1075 calls)
     fft          :     16.46s CPU     21.76s WALL (    2389 calls)
                                        0.46s GPU  (    2207 calls)
     ffts         :      7.97s CPU      9.96s WALL (     363 calls)
                                        0.02s GPU  (     181 calls)
     fftw         :      0.38s CPU     41.60s WALL (   27833 calls)
                                       41.51s GPU  (   27833 calls)
     interpolate  :     26.02s CPU     32.98s WALL (     182 calls)
 
     Parallel routines
 
     PWSCF        :  50m 6.09s CPU      1h 0m WALL

 
   This run was terminated on:  18:53:10   6May2026            

=------------------------------------------------------------------------------=
   JOB DONE.
=------------------------------------------------------------------------------=
Warning: ieee_invalid is signaling
Warning: ieee_divide_by_zero is signaling
Warning: ieee_underflow is signaling
Warning: ieee_inexact is signaling
FORTRAN STOP
