--------------------------------------------------------------------------
WARNING: Open MPI tried to bind a process but failed.  This is a
warning only; your job will continue, though performance may
be degraded.

  Local host:        3253031b5b37
  Application name:  /root/qe-7.3.1/bin/pw.x
  Error message:     failed to bind memory
  Location:          ../../../../../orte/mca/rtc/hwloc/rtc_hwloc.c:447

--------------------------------------------------------------------------

     Program PWSCF v.7.3.1 starts on  7May2026 at  2: 4:41 

     This program is part of the open-source Quantum ESPRESSO suite
     for quantum simulation of materials; please cite
         "P. Giannozzi et al., J. Phys.:Condens. Matter 21 395502 (2009);
         "P. Giannozzi et al., J. Phys.:Condens. Matter 29 465901 (2017);
         "P. Giannozzi et al., J. Chem. Phys. 152 154105 (2020);
          URL http://www.quantum-espresso.org", 
     in publications or presentations arising from this work. More details at
     http://www.quantum-espresso.org/quote

     Parallel version (MPI & OpenMP), running on       8 processor cores
     Number of MPI processes:                 1
     Threads/MPI process:                     8

     MPI processes distributed on     1 nodes
     91782 MiB available memory on the printing compute node when the environment starts
 
     Reading input from cand023_A_NbS2_La.in

     Current dimensions of program PWSCF are:
     Max number of different atomic species (ntypx) = 10
     Max number of k-points (npk) =  40000
     Max angular momentum in pseudopotentials (lmaxx) =  4
     file La.UPF: wavefunction(s)  5S 5D 4F renormalized
     file Nb.UPF: wavefunction(s)  4S 4P 4D renormalized
     file S.UPF: wavefunction(s)  3S 3P renormalized
 
     Subspace diagonalization in iterative solution of the eigenvalue problem:
     a serial algorithm will be used

 
     G-vector sticks info
     --------------------
     sticks:   dense  smooth     PW     G-vecs:    dense   smooth      PW
     Sum        4471    2989    745               435105   236543   29687
 
     Using Slab Decomposition
 


     bravais-lattice index     =            0
     lattice parameter (alat)  =      18.9603  a.u.
     unit-cell volume          =   10663.0818 (a.u.)^3
     number of atoms/cell      =           28
     number of atomic types    =            3
     number of electrons       =       236.00
     number of Kohn-Sham states=          142
     kinetic-energy cutoff     =      30.0000  Ry
     charge density cutoff     =     180.0000  Ry
     scf convergence threshold =      1.0E-07
     mixing beta               =       0.4000
     number of iterations used =            8  plain     mixing
     Exchange-correlation= SLA  PW   PBX  PBC
                           (   1   4   3   4   0   0   0)

     GPU acceleration is ACTIVE.  1 visible GPUs per MPI rank


     celldm(1)=  18.960262  celldm(2)=   0.000000  celldm(3)=   0.000000
     celldm(4)=   0.000000  celldm(5)=   0.000000  celldm(6)=   0.000000

     crystal axes: (cart. coord. in units of alat)
               a(1) = (   1.000000   0.000000   0.000000 )  
               a(2) = (  -0.500000   0.866025   0.000000 )  
               a(3) = (   0.000000   0.000000   1.806422 )  

     reciprocal axes: (cart. coord. in units 2 pi/alat)
               b(1) = (  1.000000  0.577350 -0.000000 )  
               b(2) = (  0.000000  1.154701  0.000000 )  
               b(3) = (  0.000000 -0.000000  0.553581 )  


     PseudoPot. # 1 for La read from file:
     /root/qe_pseudos/La.UPF
     MD5 check sum: 6e6ac421535d279511fd22156ed99225
     Pseudo is Projector augmented-wave + core cor, Zval = 11.0
     Generated using &quot;atomic&quot; code by A. Dal Corso  v.6.2.2
     Shape of augmentation charge: PSQ
     Using radial grid of 1253 points,  8 beta functions with: 
                l(1) =   0
                l(2) =   0
                l(3) =   1
                l(4) =   1
                l(5) =   2
                l(6) =   2
                l(7) =   3
                l(8) =   3
     Q(r) pseudized with 0 coefficients 


     PseudoPot. # 2 for Nb read from file:
     /root/qe_pseudos/Nb.UPF
     MD5 check sum: dcedcbb129af9a7271e4748e5febedb1
     Pseudo is Projector augmented-wave + core cor, Zval = 13.0
     Generated using &quot;atomic&quot; code by A. Dal Corso  v.6.2.2
     Shape of augmentation charge: PSQ
     Using radial grid of 1227 points,  6 beta functions with: 
                l(1) =   0
                l(2) =   0
                l(3) =   1
                l(4) =   1
                l(5) =   2
                l(6) =   2
     Q(r) pseudized with 0 coefficients 


     PseudoPot. # 3 for S  read from file:
     /root/qe_pseudos/S.UPF
     MD5 check sum: fb45dfebcf3e72a4e1bd4a866ec2e262
     Pseudo is Projector augmented-wave + core cor, Zval =  6.0
     Generated using &quot;atomic&quot; code by A. Dal Corso  v.6.3
     Shape of augmentation charge: PSQ
     Using radial grid of 1151 points,  6 beta functions with: 
                l(1) =   0
                l(2) =   0
                l(3) =   1
                l(4) =   1
                l(5) =   2
                l(6) =   2
     Q(r) pseudized with 0 coefficients 


     atomic species   valence    mass     pseudopotential
     La               11.00   138.90550     La( 1.00)
     Nb               13.00    92.90640     Nb( 1.00)
     S                 6.00    32.06000     S ( 1.00)

     No symmetry found



   Cartesian axes

     site n.     atom                  positions (alat units)
         1        Nb     tau(   1) = (   0.3331033   0.5774810   0.9028383  )
         2        Nb     tau(   2) = (   0.4998376   0.2860536   0.9049236  )
         3        Nb     tau(   3) = (   0.6620466  -0.0004431   0.9095785  )
         4        Nb     tau(   4) = (  -0.0019241   0.5815740   0.9095872  )
         5        Nb     tau(   5) = (   0.1713857   0.2850642   0.9014702  )
         6        Nb     tau(   6) = (   0.3346972  -0.0007839   0.9069744  )
         7        Nb     tau(   7) = (   0.0054846  -0.0022844   0.9014506  )
         8        Nb     tau(   8) = (  -0.3311421   0.5787978   0.9049226  )
         9        Nb     tau(   9) = (  -0.1738676   0.2928205   0.8899274  )
        10        S      tau(  10) = (  -0.1647457   0.6722070   0.7496001  )
        11        S      tau(  11) = (   0.5001749   0.6733716   1.0574869  )
        12        S      tau(  12) = (   0.1696120   0.0945082   1.0592503  )
        13        S      tau(  13) = (   0.6598017   0.3888658   0.7448124  )
        14        S      tau(  14) = (   0.6671308   0.3846295   1.0565633  )
        15        S      tau(  15) = (   0.1682494   0.0953246   0.7463772  )
        16        S      tau(  16) = (   0.8320559   0.0921576   0.7513750  )
        17        S      tau(  17) = (   0.8387133   0.0885037   1.0757319  )
        18        S      tau(  18) = (   0.1649473   0.6745657   0.7509041  )
        19        S      tau(  19) = (   0.1659083   0.6740107   1.0621036  )
        20        S      tau(  20) = (   0.0094313   0.3841993   1.0758049  )
        21        S      tau(  21) = (   0.3340770   0.3835640   0.7479585  )
        22        S      tau(  22) = (   0.5015167   0.6735953   0.7479604  )
        23        S      tau(  23) = (   0.0028914   0.3880324   0.7513923  )
        24        S      tau(  24) = (   0.5021470   0.0952494   0.7495993  )
        25        S      tau(  25) = (   0.4980699   0.0963240   1.0629598  )
        26        S      tau(  26) = (  -0.1677172   0.6752052   1.0629612  )
        27        S      tau(  27) = (   0.3335965   0.3848532   1.0574887  )
        28        La     tau(  28) = (  -0.0988150   0.2493952   1.0931312  )

     number of k points=     1  Methfessel-Paxton smearing, width (Ry)=  0.0100
                       cart. coord. in units 2pi/alat
        k(    1) = (   0.0000000   0.0000000   0.0000000), wk =   2.0000000

     Dense  grid:   435105 G-vectors     FFT dimensions: (  81,  81, 150)

     Smooth grid:   236543 G-vectors     FFT dimensions: (  72,  72, 120)

     Estimated max dynamical RAM per process >       4.50 GB

 %%%%%%%%%%%%%%%%%%%%%%%%%%%%%%%%%%%%%%%%%%%%%%%%%%%%%%%%%%%%%%%%%%%%%%%%%%%%%%
     Error in routine  ylmr2 (15):
     l too large, or wrong number of Ylm required
 %%%%%%%%%%%%%%%%%%%%%%%%%%%%%%%%%%%%%%%%%%%%%%%%%%%%%%%%%%%%%%%%%%%%%%%%%%%%%%

     stopping ...
--------------------------------------------------------------------------
MPI_ABORT was invoked on rank 0 in communicator MPI_COMM_WORLD
with errorcode 15.

NOTE: invoking MPI_ABORT causes Open MPI to kill all MPI processes.
You may or may not see output from other processes, depending on
exactly when Open MPI kills them.
--------------------------------------------------------------------------
