--------------------------------------------------------------------------
WARNING: Open MPI tried to bind a process but failed.  This is a
warning only; your job will continue, though performance may
be degraded.

  Local host:        3253031b5b37
  Application name:  /root/qe-7.3.1/bin/pw.x
  Error message:     failed to bind memory
  Location:          ../../../../../orte/mca/rtc/hwloc/rtc_hwloc.c:447

--------------------------------------------------------------------------

     Program PWSCF v.7.3.1 starts on  7May2026 at  3:54:44 

     This program is part of the open-source Quantum ESPRESSO suite
     for quantum simulation of materials; please cite
         "P. Giannozzi et al., J. Phys.:Condens. Matter 21 395502 (2009);
         "P. Giannozzi et al., J. Phys.:Condens. Matter 29 465901 (2017);
         "P. Giannozzi et al., J. Chem. Phys. 152 154105 (2020);
          URL http://www.quantum-espresso.org", 
     in publications or presentations arising from this work. More details at
     http://www.quantum-espresso.org/quote

     Parallel version (MPI & OpenMP), running on       8 processor cores
     Number of MPI processes:                 1
     Threads/MPI process:                     8

     MPI processes distributed on     1 nodes
     90138 MiB available memory on the printing compute node when the environment starts
 
     Reading input from cand264_A_TiS2_Bi.in

     Current dimensions of program PWSCF are:
     Max number of different atomic species (ntypx) = 10
     Max number of k-points (npk) =  40000
     Max angular momentum in pseudopotentials (lmaxx) =  4
     file Bi.UPF: wavefunction(s)  6P 5D renormalized
     file S.UPF: wavefunction(s)  3S 3P renormalized
     file Ti.UPF: wavefunction(s)  3S 3P 3D renormalized
 
     Subspace diagonalization in iterative solution of the eigenvalue problem:
     a serial algorithm will be used

 
     G-vector sticks info
     --------------------
     sticks:   dense  smooth     PW     G-vecs:    dense   smooth      PW
     Sum        4675    3103    769               446431   242967   30407
 
     Using Slab Decomposition
 


     bravais-lattice index     =            0
     lattice parameter (alat)  =      19.3567  a.u.
     unit-cell volume          =   10943.8233 (a.u.)^3
     number of atoms/cell      =           28
     number of atomic types    =            3
     number of electrons       =       231.00
     number of Kohn-Sham states=          139
     kinetic-energy cutoff     =      30.0000  Ry
     charge density cutoff     =     180.0000  Ry
     scf convergence threshold =      1.0E-07
     mixing beta               =       0.4000
     number of iterations used =            8  plain     mixing
     Exchange-correlation= SLA  PW   PBX  PBC
                           (   1   4   3   4   0   0   0)

     GPU acceleration is ACTIVE.  1 visible GPUs per MPI rank


     celldm(1)=  19.356728  celldm(2)=   0.000000  celldm(3)=   0.000000
     celldm(4)=   0.000000  celldm(5)=   0.000000  celldm(6)=   0.000000

     crystal axes: (cart. coord. in units of alat)
               a(1) = (   1.000000   0.000000   0.000000 )  
               a(2) = (  -0.500000   0.866025   0.000000 )  
               a(3) = (   0.000000   0.000000   1.742379 )  

     reciprocal axes: (cart. coord. in units 2 pi/alat)
               b(1) = (  1.000000  0.577350 -0.000000 )  
               b(2) = (  0.000000  1.154701  0.000000 )  
               b(3) = (  0.000000 -0.000000  0.573928 )  


     PseudoPot. # 1 for Bi read from file:
     /root/qe_pseudos/Bi.UPF
     MD5 check sum: 266ded784ae3bc462508ed03f0f37963
     Pseudo is Projector augmented-wave + core cor, Zval = 15.0
     Generated using &quot;atomic&quot; code by A. Dal Corso  v.6.2.2
     Shape of augmentation charge: PSQ
     Using radial grid of 1283 points,  6 beta functions with: 
                l(1) =   0
                l(2) =   0
                l(3) =   1
                l(4) =   1
                l(5) =   2
                l(6) =   2
     Q(r) pseudized with 0 coefficients 


     PseudoPot. # 2 for S  read from file:
     /root/qe_pseudos/S.UPF
     MD5 check sum: fb45dfebcf3e72a4e1bd4a866ec2e262
     Pseudo is Projector augmented-wave + core cor, Zval =  6.0
     Generated using &quot;atomic&quot; code by A. Dal Corso  v.6.3
     Shape of augmentation charge: PSQ
     Using radial grid of 1151 points,  6 beta functions with: 
                l(1) =   0
                l(2) =   0
                l(3) =   1
                l(4) =   1
                l(5) =   2
                l(6) =   2
     Q(r) pseudized with 0 coefficients 


     PseudoPot. # 3 for Ti read from file:
     /root/qe_pseudos/Ti.UPF
     MD5 check sum: 01f69b0d8ba4438b2e03ac6ea4af1c0b
     Pseudo is Projector augmented-wave + core cor, Zval = 12.0
     Generated using &quot;atomic&quot; code by A. Dal Corso  v.6.2.2
     Shape of augmentation charge: PSQ
     Using radial grid of 1177 points,  6 beta functions with: 
                l(1) =   0
                l(2) =   0
                l(3) =   1
                l(4) =   1
                l(5) =   2
                l(6) =   2
     Q(r) pseudized with 0 coefficients 


     atomic species   valence    mass     pseudopotential
     Bi               15.00   208.98040     Bi( 1.00)
     S                 6.00    32.06000     S ( 1.00)
     Ti               12.00    47.86700     Ti( 1.00)

     No symmetry found



   Cartesian axes

     site n.     atom                  positions (alat units)
         1        S      tau(   1) = (   0.4999468   0.6702534   1.0181371  )
         2        S      tau(   2) = (   0.4999755   0.4846998   0.7320928  )
         3        S      tau(   3) = (   0.6650522   0.3829870   1.0090383  )
         4        S      tau(   4) = (   0.6705831   0.1921941   0.7354266  )
         5        S      tau(   5) = (   0.8249904   0.1042744   1.0221543  )
         6        S      tau(   6) = (  -0.0001349   0.7725681   0.7300484  )
         7        S      tau(   7) = (   0.1710969   0.6766022   1.0140063  )
         8        S      tau(   8) = (   0.1643174   0.4839137   0.7286834  )
         9        S      tau(   9) = (   0.3332283   0.7718640   0.7360284  )
        10        S      tau(  10) = (   0.3292831   0.1922629   0.7353418  )
        11        S      tau(  11) = (   0.3346289   0.3830805   1.0092113  )
        12        S      tau(  12) = (  -0.3332926   0.7719451   0.7361235  )
        13        S      tau(  13) = (  -0.1709810   0.6764493   1.0139412  )
        14        S      tau(  14) = (  -0.1642046   0.4839418   0.7287353  )
        15        S      tau(  15) = (  -0.0000284   0.3847364   1.0141299  )
        16        S      tau(  16) = (  -0.0000232   0.1861311   0.7465096  )
        17        S      tau(  17) = (   0.1750015   0.1043349   1.0222061  )
        18        S      tau(  18) = (   0.4999815   0.0982218   1.0080377  )
        19        Ti     tau(  19) = (   0.1731371   0.3043562   0.8644675  )
        20        Ti     tau(  20) = (   0.3422682  -0.0155400   0.8724494  )
        21        Ti     tau(  21) = (   0.0000746   0.5680099   0.8794644  )
        22        Ti     tau(  22) = (  -0.3364706   0.5772599   0.8740031  )
        23        Ti     tau(  23) = (   0.6576818  -0.0155671   0.8720788  )
        24        Ti     tau(  24) = (   0.5000997   0.2858714   0.8647846  )
        25        Ti     tau(  25) = (  -0.1726265   0.3043208   0.8641697  )
        26        Ti     tau(  26) = (   0.3363485   0.5774752   0.8740204  )
        27        Ti     tau(  27) = (   0.0000626  -0.0050307   0.8684644  )
        28        Bi     tau(  28) = (   0.0000038   0.0869140   1.1537036  )

     number of k points=     1  Methfessel-Paxton smearing, width (Ry)=  0.0100
                       cart. coord. in units 2pi/alat
        k(    1) = (   0.0000000   0.0000000   0.0000000), wk =   2.0000000

     Dense  grid:   446431 G-vectors     FFT dimensions: (  90,  90, 150)

     Smooth grid:   242967 G-vectors     FFT dimensions: (  72,  72, 120)

     Estimated max dynamical RAM per process >       2.17 GB

     Check: negative core charge=   -0.000025

     Initial potential from superposition of free atoms

     starting charge     230.9853, renormalised to     231.0000

     negative rho (up, down):  3.188E-02 0.000E+00
     Starting wfcs are  171 randomized atomic wfcs
     Checking if some PAW data can be deallocated... 

     total cpu time spent up to now is       20.3 secs

     Self-consistent Calculation

     iteration #  1     ecut=    30.00 Ry     beta= 0.40
     Davidson diagonalization with overlap
     ethr =  1.00E-02,  avg # of iterations =  2.0

     negative rho (up, down):  3.223E-02 0.000E+00

     total cpu time spent up to now is       32.4 secs

     total energy              =   -3753.00636245 Ry
     estimated scf accuracy    <       3.25499162 Ry

     iteration #  2     ecut=    30.00 Ry     beta= 0.40
     Davidson diagonalization with overlap
     ethr =  1.41E-03,  avg # of iterations =  5.0

     negative rho (up, down):  4.748E-02 0.000E+00

     total cpu time spent up to now is       44.7 secs

     total energy              =   -3752.41066162 Ry
     estimated scf accuracy    <      10.14146600 Ry

     iteration #  3     ecut=    30.00 Ry     beta= 0.40
     Davidson diagonalization with overlap
     ethr =  1.41E-03,  avg # of iterations =  3.0

     negative rho (up, down):  5.076E-02 0.000E+00

     total cpu time spent up to now is       56.8 secs

     total energy              =   -3753.73870158 Ry
     estimated scf accuracy    <       2.37515178 Ry

     iteration #  4     ecut=    30.00 Ry     beta= 0.40
     Davidson diagonalization with overlap
     ethr =  1.03E-03,  avg # of iterations =  3.0

     negative rho (up, down):  5.689E-02 0.000E+00

     total cpu time spent up to now is       69.2 secs

     total energy              =   -3753.93286639 Ry
     estimated scf accuracy    <       1.01699073 Ry

     iteration #  5     ecut=    30.00 Ry     beta= 0.40
     Davidson diagonalization with overlap
     ethr =  4.40E-04,  avg # of iterations =  2.0

     negative rho (up, down):  6.175E-02 0.000E+00

     total cpu time spent up to now is       81.3 secs

     total energy              =   -3753.98894368 Ry
     estimated scf accuracy    <       0.34663636 Ry

     iteration #  6     ecut=    30.00 Ry     beta= 0.40
     Davidson diagonalization with overlap
     ethr =  1.50E-04,  avg # of iterations =  2.0

     negative rho (up, down):  7.523E-02 0.000E+00

     total cpu time spent up to now is       93.5 secs

     total energy              =   -3753.99838495 Ry
     estimated scf accuracy    <       0.17605590 Ry

     iteration #  7     ecut=    30.00 Ry     beta= 0.40
     Davidson diagonalization with overlap
     ethr =  7.62E-05,  avg # of iterations = 14.0

     negative rho (up, down):  1.009E-01 0.000E+00

     total cpu time spent up to now is      106.0 secs

     total energy              =   -3754.01004151 Ry
     estimated scf accuracy    <       0.10283145 Ry

     iteration #  8     ecut=    30.00 Ry     beta= 0.40
     Davidson diagonalization with overlap
     ethr =  4.45E-05,  avg # of iterations =  2.0

     negative rho (up, down):  1.275E-01 0.000E+00

     total cpu time spent up to now is      118.2 secs

     total energy              =   -3754.02371070 Ry
     estimated scf accuracy    <       0.02057063 Ry

     iteration #  9     ecut=    30.00 Ry     beta= 0.40
     Davidson diagonalization with overlap
     ethr =  8.91E-06,  avg # of iterations = 13.0

     negative rho (up, down):  1.719E-01 0.000E+00

     total cpu time spent up to now is      130.7 secs

     total energy              =   -3754.03158305 Ry
     estimated scf accuracy    <       0.02140671 Ry

     iteration # 10     ecut=    30.00 Ry     beta= 0.40
     Davidson diagonalization with overlap
     ethr =  8.91E-06,  avg # of iterations =  2.0

     negative rho (up, down):  2.329E-01 0.000E+00

     total cpu time spent up to now is      142.9 secs

     total energy              =   -3754.03835023 Ry
     estimated scf accuracy    <       0.00883815 Ry

     iteration # 11     ecut=    30.00 Ry     beta= 0.40
     Davidson diagonalization with overlap
     ethr =  3.83E-06,  avg # of iterations =  2.0

     negative rho (up, down):  3.286E-01 0.000E+00

     total cpu time spent up to now is      155.1 secs

     total energy              =   -3754.03669350 Ry
     estimated scf accuracy    <       0.00706201 Ry

     iteration # 12     ecut=    30.00 Ry     beta= 0.40
     Davidson diagonalization with overlap
     ethr =  3.06E-06,  avg # of iterations =  2.0

     negative rho (up, down):  5.061E-01 0.000E+00

     total cpu time spent up to now is      167.2 secs

     total energy              =   -3754.00627444 Ry
     estimated scf accuracy    <       0.00802226 Ry

     iteration # 13     ecut=    30.00 Ry     beta= 0.40
     Davidson diagonalization with overlap
     ethr =  3.06E-06,  avg # of iterations = 11.0

     negative rho (up, down):  7.730E-01 0.000E+00

     total cpu time spent up to now is      179.9 secs

     total energy              =   -3753.92974167 Ry
     estimated scf accuracy    <       0.01788449 Ry

     iteration # 14     ecut=    30.00 Ry     beta= 0.40
     Davidson diagonalization with overlap
     ethr =  3.06E-06,  avg # of iterations =  6.0

     negative rho (up, down):  6.564E-01 0.000E+00

     total cpu time spent up to now is      192.3 secs

     total energy              =   -3753.99702252 Ry
     estimated scf accuracy    <       0.02666243 Ry

     iteration # 15     ecut=    30.00 Ry     beta= 0.40
     Davidson diagonalization with overlap
     ethr =  3.06E-06,  avg # of iterations =  2.0

     negative rho (up, down):  5.177E-01 0.000E+00

     total cpu time spent up to now is      204.4 secs

     total energy              =   -3754.09127377 Ry
     estimated scf accuracy    <       0.02332706 Ry

     iteration # 16     ecut=    30.00 Ry     beta= 0.40
     Davidson diagonalization with overlap
     ethr =  3.06E-06,  avg # of iterations =  5.0

     negative rho (up, down):  6.076E-01 0.000E+00

     total cpu time spent up to now is      216.8 secs

     total energy              =   -3754.10697544 Ry
     estimated scf accuracy    <       0.01693492 Ry

     iteration # 17     ecut=    30.00 Ry     beta= 0.40
     Davidson diagonalization with overlap
     ethr =  3.06E-06,  avg # of iterations =  2.0

     negative rho (up, down):  7.064E-01 0.000E+00

     total cpu time spent up to now is      228.9 secs

     total energy              =   -3754.11636758 Ry
     estimated scf accuracy    <       0.00837823 Ry

     iteration # 18     ecut=    30.00 Ry     beta= 0.40
     Davidson diagonalization with overlap
     ethr =  3.06E-06,  avg # of iterations =  2.0

     negative rho (up, down):  8.106E-01 0.000E+00

     total cpu time spent up to now is      241.1 secs

     total energy              =   -3754.12016094 Ry
     estimated scf accuracy    <       0.00910773 Ry

     iteration # 19     ecut=    30.00 Ry     beta= 0.40
     Davidson diagonalization with overlap
     ethr =  3.06E-06,  avg # of iterations =  5.0

     negative rho (up, down):  8.984E-01 0.000E+00

     total cpu time spent up to now is      253.6 secs

     total energy              =   -3754.12963169 Ry
     estimated scf accuracy    <       0.01203691 Ry

     iteration # 20     ecut=    30.00 Ry     beta= 0.40
     Davidson diagonalization with overlap
     ethr =  3.06E-06,  avg # of iterations =  2.0

     negative rho (up, down):  9.994E-01 0.000E+00

     total cpu time spent up to now is      265.7 secs

     total energy              =   -3754.12642414 Ry
     estimated scf accuracy    <       0.01285170 Ry

     iteration # 21     ecut=    30.00 Ry     beta= 0.40
     Davidson diagonalization with overlap
     ethr =  3.06E-06,  avg # of iterations =  2.0

     negative rho (up, down):  1.075E+00 0.000E+00

     total cpu time spent up to now is      277.8 secs

     total energy              =   -3754.13604067 Ry
     estimated scf accuracy    <       0.01372359 Ry

     iteration # 22     ecut=    30.00 Ry     beta= 0.40
     Davidson diagonalization with overlap
     ethr =  3.06E-06,  avg # of iterations = 18.0

     negative rho (up, down):  1.341E+00 0.000E+00

     total cpu time spent up to now is      290.5 secs

     total energy              =   -3754.01102535 Ry
     estimated scf accuracy    <       0.03477315 Ry

     iteration # 23     ecut=    30.00 Ry     beta= 0.40
     Davidson diagonalization with overlap
     ethr =  3.06E-06,  avg # of iterations = 11.0

     negative rho (up, down):  1.365E+00 0.000E+00

     total cpu time spent up to now is      303.0 secs

     total energy              =   -3754.01582947 Ry
     estimated scf accuracy    <       0.03245630 Ry

     iteration # 24     ecut=    30.00 Ry     beta= 0.40
     Davidson diagonalization with overlap
     ethr =  3.06E-06,  avg # of iterations =  2.0

     negative rho (up, down):  2.117E+00 0.000E+00

     total cpu time spent up to now is      315.1 secs

     total energy              =   -3753.58676590 Ry
     estimated scf accuracy    <       0.03684511 Ry

     iteration # 25     ecut=    30.00 Ry     beta= 0.40
     Davidson diagonalization with overlap
     c_bands:  1 eigenvalues not converged
     ethr =  3.06E-06,  avg # of iterations = 20.0

     negative rho (up, down):  1.247E+00 0.000E+00

     total cpu time spent up to now is      328.1 secs

     total energy              =   -3754.04073318 Ry
     estimated scf accuracy    <       0.09248244 Ry

     iteration # 26     ecut=    30.00 Ry     beta= 0.40
     Davidson diagonalization with overlap
     c_bands:  1 eigenvalues not converged
     ethr =  3.06E-06,  avg # of iterations = 20.0

     negative rho (up, down):  1.172E+00 0.000E+00

     total cpu time spent up to now is      341.0 secs

     total energy              =   -3754.14670852 Ry
     estimated scf accuracy    <       0.03593792 Ry

     iteration # 27     ecut=    30.00 Ry     beta= 0.40
     Davidson diagonalization with overlap
     ethr =  3.06E-06,  avg # of iterations =  7.0

     negative rho (up, down):  1.247E+00 0.000E+00

     total cpu time spent up to now is      353.2 secs

     total energy              =   -3754.16498120 Ry
     estimated scf accuracy    <       0.01764689 Ry

     iteration # 28     ecut=    30.00 Ry     beta= 0.40
     Davidson diagonalization with overlap
     ethr =  3.06E-06,  avg # of iterations =  2.0

     negative rho (up, down):  1.293E+00 0.000E+00

     total cpu time spent up to now is      365.4 secs

     total energy              =   -3754.16676390 Ry
     estimated scf accuracy    <       0.01359239 Ry

     iteration # 29     ecut=    30.00 Ry     beta= 0.40
     Davidson diagonalization with overlap
     ethr =  3.06E-06,  avg # of iterations =  2.0

     negative rho (up, down):  1.336E+00 0.000E+00

     total cpu time spent up to now is      377.6 secs

     total energy              =   -3754.16700113 Ry
     estimated scf accuracy    <       0.00881204 Ry

     iteration # 30     ecut=    30.00 Ry     beta= 0.40
     Davidson diagonalization with overlap
     ethr =  3.06E-06,  avg # of iterations =  2.0

     negative rho (up, down):  1.403E+00 0.000E+00

     total cpu time spent up to now is      389.8 secs

     total energy              =   -3754.16367607 Ry
     estimated scf accuracy    <       0.01133773 Ry

     iteration # 31     ecut=    30.00 Ry     beta= 0.40
     Davidson diagonalization with overlap
     ethr =  3.06E-06,  avg # of iterations =  3.0

     negative rho (up, down):  1.441E+00 0.000E+00

     total cpu time spent up to now is      402.0 secs

     total energy              =   -3754.15693515 Ry
     estimated scf accuracy    <       0.01966899 Ry

     iteration # 32     ecut=    30.00 Ry     beta= 0.40
     Davidson diagonalization with overlap
     ethr =  3.06E-06,  avg # of iterations =  2.0

     negative rho (up, down):  1.444E+00 0.000E+00

     total cpu time spent up to now is      414.2 secs

     total energy              =   -3754.15984785 Ry
     estimated scf accuracy    <       0.01737202 Ry

     iteration # 33     ecut=    30.00 Ry     beta= 0.40
     Davidson diagonalization with overlap
     ethr =  3.06E-06,  avg # of iterations =  2.0

     negative rho (up, down):  1.453E+00 0.000E+00

     total cpu time spent up to now is      426.5 secs

     total energy              =   -3754.15857942 Ry
     estimated scf accuracy    <       0.01586793 Ry

     iteration # 34     ecut=    30.00 Ry     beta= 0.40
     Davidson diagonalization with overlap
     ethr =  3.06E-06,  avg # of iterations =  2.0

     negative rho (up, down):  1.443E+00 0.000E+00

     total cpu time spent up to now is      438.6 secs

     total energy              =   -3754.16404593 Ry
     estimated scf accuracy    <       0.01184877 Ry

     iteration # 35     ecut=    30.00 Ry     beta= 0.40
     Davidson diagonalization with overlap
     ethr =  3.06E-06,  avg # of iterations =  2.0

     negative rho (up, down):  1.457E+00 0.000E+00

     total cpu time spent up to now is      450.8 secs

     total energy              =   -3754.16051197 Ry
     estimated scf accuracy    <       0.00930463 Ry

     iteration # 36     ecut=    30.00 Ry     beta= 0.40
     Davidson diagonalization with overlap
     ethr =  3.06E-06,  avg # of iterations =  2.0

     negative rho (up, down):  1.479E+00 0.000E+00

     total cpu time spent up to now is      462.9 secs

     total energy              =   -3754.15550239 Ry
     estimated scf accuracy    <       0.01032063 Ry

     iteration # 37     ecut=    30.00 Ry     beta= 0.40
     Davidson diagonalization with overlap
     ethr =  3.06E-06,  avg # of iterations =  2.0

     negative rho (up, down):  1.513E+00 0.000E+00

     total cpu time spent up to now is      475.1 secs

     total energy              =   -3754.14411886 Ry
     estimated scf accuracy    <       0.00911341 Ry

     iteration # 38     ecut=    30.00 Ry     beta= 0.40
     Davidson diagonalization with overlap
     ethr =  3.06E-06,  avg # of iterations =  2.0

     negative rho (up, down):  1.536E+00 0.000E+00

     total cpu time spent up to now is      487.4 secs

     total energy              =   -3754.13642396 Ry
     estimated scf accuracy    <       0.01269085 Ry

     iteration # 39     ecut=    30.00 Ry     beta= 0.40
     Davidson diagonalization with overlap
     ethr =  3.06E-06,  avg # of iterations =  3.0

     negative rho (up, down):  1.513E+00 0.000E+00

     total cpu time spent up to now is      499.6 secs

     total energy              =   -3754.17044830 Ry
     estimated scf accuracy    <       0.03616241 Ry

     iteration # 40     ecut=    30.00 Ry     beta= 0.40
     Davidson diagonalization with overlap
     ethr =  3.06E-06,  avg # of iterations =  2.0

     negative rho (up, down):  1.517E+00 0.000E+00

     total cpu time spent up to now is      511.8 secs

     total energy              =   -3754.18030902 Ry
     estimated scf accuracy    <       0.01252447 Ry

     iteration # 41     ecut=    30.00 Ry     beta= 0.40
     Davidson diagonalization with overlap
     ethr =  3.06E-06,  avg # of iterations =  2.0

     negative rho (up, down):  1.531E+00 0.000E+00

     total cpu time spent up to now is      524.0 secs

     total energy              =   -3754.18810811 Ry
     estimated scf accuracy    <       0.01113628 Ry

     iteration # 42     ecut=    30.00 Ry     beta= 0.40
     Davidson diagonalization with overlap
     ethr =  3.06E-06,  avg # of iterations =  2.0

     negative rho (up, down):  1.543E+00 0.000E+00

     total cpu time spent up to now is      536.1 secs

     total energy              =   -3754.19030831 Ry
     estimated scf accuracy    <       0.00600756 Ry

     iteration # 43     ecut=    30.00 Ry     beta= 0.40
     Davidson diagonalization with overlap
     ethr =  2.60E-06,  avg # of iterations =  2.0

     negative rho (up, down):  1.549E+00 0.000E+00

     total cpu time spent up to now is      548.3 secs

     total energy              =   -3754.19096812 Ry
     estimated scf accuracy    <       0.00140316 Ry

     iteration # 44     ecut=    30.00 Ry     beta= 0.40
     Davidson diagonalization with overlap
     ethr =  6.07E-07,  avg # of iterations =  2.0

     negative rho (up, down):  1.555E+00 0.000E+00

     total cpu time spent up to now is      560.6 secs

     total energy              =   -3754.19128488 Ry
     estimated scf accuracy    <       0.00067201 Ry

     iteration # 45     ecut=    30.00 Ry     beta= 0.40
     Davidson diagonalization with overlap
     ethr =  2.91E-07,  avg # of iterations =  2.0

     negative rho (up, down):  1.560E+00 0.000E+00

     total cpu time spent up to now is      572.7 secs

     total energy              =   -3754.19163064 Ry
     estimated scf accuracy    <       0.00026178 Ry

     iteration # 46     ecut=    30.00 Ry     beta= 0.40
     Davidson diagonalization with overlap
     ethr =  1.13E-07,  avg # of iterations =  3.0

     negative rho (up, down):  1.565E+00 0.000E+00

     total cpu time spent up to now is      585.0 secs

     total energy              =   -3754.19200543 Ry
     estimated scf accuracy    <       0.00024520 Ry

     iteration # 47     ecut=    30.00 Ry     beta= 0.40
     Davidson diagonalization with overlap
     ethr =  1.06E-07,  avg # of iterations =  3.0

     negative rho (up, down):  1.570E+00 0.000E+00

     total cpu time spent up to now is      597.2 secs

     total energy              =   -3754.19206095 Ry
     estimated scf accuracy    <       0.00013397 Ry

     iteration # 48     ecut=    30.00 Ry     beta= 0.40
     Davidson diagonalization with overlap
     ethr =  5.80E-08,  avg # of iterations =  3.0

     negative rho (up, down):  1.573E+00 0.000E+00

     total cpu time spent up to now is      609.4 secs

     total energy              =   -3754.19231120 Ry
     estimated scf accuracy    <       0.00018685 Ry

     iteration # 49     ecut=    30.00 Ry     beta= 0.40
     Davidson diagonalization with overlap
     ethr =  5.80E-08,  avg # of iterations =  3.0

     negative rho (up, down):  1.576E+00 0.000E+00

     total cpu time spent up to now is      621.6 secs

     total energy              =   -3754.19240626 Ry
     estimated scf accuracy    <       0.00014516 Ry

     iteration # 50     ecut=    30.00 Ry     beta= 0.40
     Davidson diagonalization with overlap
     ethr =  5.80E-08,  avg # of iterations =  2.0

     negative rho (up, down):  1.579E+00 0.000E+00

     total cpu time spent up to now is      633.7 secs

     total energy              =   -3754.19258943 Ry
     estimated scf accuracy    <       0.00002506 Ry

     iteration # 51     ecut=    30.00 Ry     beta= 0.40
     Davidson diagonalization with overlap
     ethr =  1.08E-08,  avg # of iterations =  6.0

     negative rho (up, down):  1.582E+00 0.000E+00

     total cpu time spent up to now is      646.1 secs

     total energy              =   -3754.19272775 Ry
     estimated scf accuracy    <       0.00005212 Ry

     iteration # 52     ecut=    30.00 Ry     beta= 0.40
     Davidson diagonalization with overlap
     ethr =  1.08E-08,  avg # of iterations =  3.0

     negative rho (up, down):  1.584E+00 0.000E+00

     total cpu time spent up to now is      658.3 secs

     total energy              =   -3754.19284342 Ry
     estimated scf accuracy    <       0.00004050 Ry

     iteration # 53     ecut=    30.00 Ry     beta= 0.40
     Davidson diagonalization with overlap
     ethr =  1.08E-08,  avg # of iterations =  3.0

     negative rho (up, down):  1.585E+00 0.000E+00

     total cpu time spent up to now is      670.6 secs

     total energy              =   -3754.19287751 Ry
     estimated scf accuracy    <       0.00006912 Ry

     iteration # 54     ecut=    30.00 Ry     beta= 0.40
     Davidson diagonalization with overlap
     ethr =  1.08E-08,  avg # of iterations =  3.0

     negative rho (up, down):  1.587E+00 0.000E+00

     total cpu time spent up to now is      682.8 secs

     total energy              =   -3754.19232415 Ry
     estimated scf accuracy    <       0.00010090 Ry

     iteration # 55     ecut=    30.00 Ry     beta= 0.40
     Davidson diagonalization with overlap
     ethr =  1.08E-08,  avg # of iterations =  3.0

     negative rho (up, down):  1.589E+00 0.000E+00

     total cpu time spent up to now is      695.0 secs

     total energy              =   -3754.19195184 Ry
     estimated scf accuracy    <       0.00025253 Ry

     iteration # 56     ecut=    30.00 Ry     beta= 0.40
     Davidson diagonalization with overlap
     ethr =  1.08E-08,  avg # of iterations =  3.0

     negative rho (up, down):  1.590E+00 0.000E+00

     total cpu time spent up to now is      707.3 secs

     total energy              =   -3754.19142531 Ry
     estimated scf accuracy    <       0.00031179 Ry

     iteration # 57     ecut=    30.00 Ry     beta= 0.40
     Davidson diagonalization with overlap
     ethr =  1.08E-08,  avg # of iterations =  3.0

     negative rho (up, down):  1.592E+00 0.000E+00

     total cpu time spent up to now is      719.4 secs

     total energy              =   -3754.19080798 Ry
     estimated scf accuracy    <       0.00041084 Ry

     iteration # 58     ecut=    30.00 Ry     beta= 0.40
     Davidson diagonalization with overlap
     ethr =  1.08E-08,  avg # of iterations =  3.0

     negative rho (up, down):  1.593E+00 0.000E+00

     total cpu time spent up to now is      731.7 secs

     total energy              =   -3754.18990938 Ry
     estimated scf accuracy    <       0.00052434 Ry

     iteration # 59     ecut=    30.00 Ry     beta= 0.40
     Davidson diagonalization with overlap
     ethr =  1.08E-08,  avg # of iterations =  3.0

     negative rho (up, down):  1.595E+00 0.000E+00

     total cpu time spent up to now is      743.9 secs

     total energy              =   -3754.18902875 Ry
     estimated scf accuracy    <       0.00066736 Ry

     iteration # 60     ecut=    30.00 Ry     beta= 0.40
     Davidson diagonalization with overlap
     ethr =  1.08E-08,  avg # of iterations =  3.0

     negative rho (up, down):  1.596E+00 0.000E+00

     total cpu time spent up to now is      756.2 secs

     total energy              =   -3754.18812602 Ry
     estimated scf accuracy    <       0.00080932 Ry

     iteration # 61     ecut=    30.00 Ry     beta= 0.40
     Davidson diagonalization with overlap
     ethr =  1.08E-08,  avg # of iterations =  3.0

     negative rho (up, down):  1.597E+00 0.000E+00

     total cpu time spent up to now is      768.4 secs

     total energy              =   -3754.18807146 Ry
     estimated scf accuracy    <       0.00094294 Ry

     iteration # 62     ecut=    30.00 Ry     beta= 0.40
     Davidson diagonalization with overlap
     ethr =  1.08E-08,  avg # of iterations =  3.0

     negative rho (up, down):  1.597E+00 0.000E+00

     total cpu time spent up to now is      780.5 secs

     total energy              =   -3754.18849710 Ry
     estimated scf accuracy    <       0.00101872 Ry

     iteration # 63     ecut=    30.00 Ry     beta= 0.40
     Davidson diagonalization with overlap
     ethr =  1.08E-08,  avg # of iterations =  6.0

     negative rho (up, down):  1.598E+00 0.000E+00

     total cpu time spent up to now is      792.9 secs

     total energy              =   -3754.18838488 Ry
     estimated scf accuracy    <       0.00099757 Ry

     iteration # 64     ecut=    30.00 Ry     beta= 0.40
     Davidson diagonalization with overlap
     ethr =  1.08E-08,  avg # of iterations =  3.0

     negative rho (up, down):  1.598E+00 0.000E+00

     total cpu time spent up to now is      805.0 secs

     total energy              =   -3754.18887107 Ry
     estimated scf accuracy    <       0.00093914 Ry

     iteration # 65     ecut=    30.00 Ry     beta= 0.40
     Davidson diagonalization with overlap
     ethr =  1.08E-08,  avg # of iterations =  6.0

     negative rho (up, down):  1.598E+00 0.000E+00

     total cpu time spent up to now is      817.4 secs

     total energy              =   -3754.18891295 Ry
     estimated scf accuracy    <       0.00099047 Ry

     iteration # 66     ecut=    30.00 Ry     beta= 0.40
     Davidson diagonalization with overlap
     ethr =  1.08E-08,  avg # of iterations =  3.0

     negative rho (up, down):  1.600E+00 0.000E+00

     total cpu time spent up to now is      829.6 secs

     total energy              =   -3754.18772159 Ry
     estimated scf accuracy    <       0.00090061 Ry

     iteration # 67     ecut=    30.00 Ry     beta= 0.40
     Davidson diagonalization with overlap
     ethr =  1.08E-08,  avg # of iterations =  6.0

     negative rho (up, down):  1.601E+00 0.000E+00

     total cpu time spent up to now is      842.0 secs

     total energy              =   -3754.18738426 Ry
     estimated scf accuracy    <       0.00106449 Ry

     iteration # 68     ecut=    30.00 Ry     beta= 0.40
     Davidson diagonalization with overlap
     ethr =  1.08E-08,  avg # of iterations =  6.0

     negative rho (up, down):  1.602E+00 0.000E+00

     total cpu time spent up to now is      854.3 secs

     total energy              =   -3754.18662177 Ry
     estimated scf accuracy    <       0.00135087 Ry

     iteration # 69     ecut=    30.00 Ry     beta= 0.40
     Davidson diagonalization with overlap
     ethr =  1.08E-08,  avg # of iterations = 11.0

     negative rho (up, down):  1.599E+00 0.000E+00

     total cpu time spent up to now is      866.9 secs

     total energy              =   -3754.18873988 Ry
     estimated scf accuracy    <       0.00549689 Ry

     iteration # 70     ecut=    30.00 Ry     beta= 0.40
     Davidson diagonalization with overlap
     ethr =  1.08E-08,  avg # of iterations = 10.0

     negative rho (up, down):  1.595E+00 0.000E+00

     total cpu time spent up to now is      879.4 secs

     total energy              =   -3754.19328645 Ry
     estimated scf accuracy    <       0.00272676 Ry

     iteration # 71     ecut=    30.00 Ry     beta= 0.40
     Davidson diagonalization with overlap
     ethr =  1.08E-08,  avg # of iterations = 12.0

     negative rho (up, down):  1.596E+00 0.000E+00

     total cpu time spent up to now is      892.0 secs

     total energy              =   -3754.19356282 Ry
     estimated scf accuracy    <       0.00040648 Ry

     iteration # 72     ecut=    30.00 Ry     beta= 0.40
     Davidson diagonalization with overlap
     ethr =  1.08E-08,  avg # of iterations =  7.0

     negative rho (up, down):  1.597E+00 0.000E+00

     total cpu time spent up to now is      904.3 secs

     total energy              =   -3754.19433668 Ry
     estimated scf accuracy    <       0.00069664 Ry

     iteration # 73     ecut=    30.00 Ry     beta= 0.40
     Davidson diagonalization with overlap
     ethr =  1.08E-08,  avg # of iterations =  7.0

     negative rho (up, down):  1.599E+00 0.000E+00

     total cpu time spent up to now is      916.8 secs

     total energy              =   -3754.19381564 Ry
     estimated scf accuracy    <       0.00117648 Ry

     iteration # 74     ecut=    30.00 Ry     beta= 0.40
     Davidson diagonalization with overlap
     ethr =  1.08E-08,  avg # of iterations = 14.0

     negative rho (up, down):  1.599E+00 0.000E+00

     total cpu time spent up to now is      929.7 secs

     total energy              =   -3754.19445234 Ry
     estimated scf accuracy    <       0.00041926 Ry

     iteration # 75     ecut=    30.00 Ry     beta= 0.40
     Davidson diagonalization with overlap
     ethr =  1.08E-08,  avg # of iterations =  8.0

     negative rho (up, down):  1.600E+00 0.000E+00

     total cpu time spent up to now is      942.2 secs

     total energy              =   -3754.19479515 Ry
     estimated scf accuracy    <       0.00139885 Ry

     iteration # 76     ecut=    30.00 Ry     beta= 0.40
     Davidson diagonalization with overlap
     ethr =  1.08E-08,  avg # of iterations = 11.0

     negative rho (up, down):  1.601E+00 0.000E+00

     total cpu time spent up to now is      954.8 secs

     total energy              =   -3754.19483362 Ry
     estimated scf accuracy    <       0.00092378 Ry

     iteration # 77     ecut=    30.00 Ry     beta= 0.40
     Davidson diagonalization with overlap
     ethr =  1.08E-08,  avg # of iterations =  7.0

     negative rho (up, down):  1.602E+00 0.000E+00

     total cpu time spent up to now is      967.2 secs

     total energy              =   -3754.19486293 Ry
     estimated scf accuracy    <       0.00026344 Ry

     iteration # 78     ecut=    30.00 Ry     beta= 0.40
     Davidson diagonalization with overlap
     ethr =  1.08E-08,  avg # of iterations =  7.0

     negative rho (up, down):  1.603E+00 0.000E+00

     total cpu time spent up to now is      979.7 secs

     total energy              =   -3754.19509091 Ry
     estimated scf accuracy    <       0.00063945 Ry

     iteration # 79     ecut=    30.00 Ry     beta= 0.40
     Davidson diagonalization with overlap
     ethr =  1.08E-08,  avg # of iterations =  8.0

     negative rho (up, down):  1.603E+00 0.000E+00

     total cpu time spent up to now is      992.2 secs

     total energy              =   -3754.19502149 Ry
     estimated scf accuracy    <       0.00034015 Ry

     iteration # 80     ecut=    30.00 Ry     beta= 0.40
     Davidson diagonalization with overlap
     ethr =  1.08E-08,  avg # of iterations =  7.0

     negative rho (up, down):  1.604E+00 0.000E+00

     total cpu time spent up to now is     1004.5 secs

     total energy              =   -3754.19533706 Ry
     estimated scf accuracy    <       0.00025920 Ry

     iteration # 81     ecut=    30.00 Ry     beta= 0.40
     Davidson diagonalization with overlap
     ethr =  1.08E-08,  avg # of iterations =  6.0

     negative rho (up, down):  1.605E+00 0.000E+00

     total cpu time spent up to now is     1016.9 secs

     total energy              =   -3754.19509686 Ry
     estimated scf accuracy    <       0.00007735 Ry

     iteration # 82     ecut=    30.00 Ry     beta= 0.40
     Davidson diagonalization with overlap
     ethr =  1.08E-08,  avg # of iterations =  6.0

     negative rho (up, down):  1.604E+00 0.000E+00

     total cpu time spent up to now is     1029.1 secs

     total energy              =   -3754.19537140 Ry
     estimated scf accuracy    <       0.00013102 Ry

     iteration # 83     ecut=    30.00 Ry     beta= 0.40
     Davidson diagonalization with overlap
     ethr =  1.08E-08,  avg # of iterations =  6.0

     negative rho (up, down):  1.605E+00 0.000E+00

     total cpu time spent up to now is     1041.5 secs

     total energy              =   -3754.19555317 Ry
     estimated scf accuracy    <       0.00004867 Ry

     iteration # 84     ecut=    30.00 Ry     beta= 0.40
     Davidson diagonalization with overlap
     ethr =  1.08E-08,  avg # of iterations =  6.0

     negative rho (up, down):  1.605E+00 0.000E+00

     total cpu time spent up to now is     1053.7 secs

     total energy              =   -3754.19560133 Ry
     estimated scf accuracy    <       0.00002920 Ry

     iteration # 85     ecut=    30.00 Ry     beta= 0.40
     Davidson diagonalization with overlap
     ethr =  1.08E-08,  avg # of iterations =  3.0

     negative rho (up, down):  1.606E+00 0.000E+00

     total cpu time spent up to now is     1065.8 secs

     total energy              =   -3754.19578800 Ry
     estimated scf accuracy    <       0.00001227 Ry

     iteration # 86     ecut=    30.00 Ry     beta= 0.40
     Davidson diagonalization with overlap
     ethr =  5.31E-09,  avg # of iterations =  3.0

     negative rho (up, down):  1.606E+00 0.000E+00

     total cpu time spent up to now is     1078.1 secs

     total energy              =   -3754.19587119 Ry
     estimated scf accuracy    <       0.00001858 Ry

     iteration # 87     ecut=    30.00 Ry     beta= 0.40
     Davidson diagonalization with overlap
     ethr =  5.31E-09,  avg # of iterations =  3.0

     negative rho (up, down):  1.607E+00 0.000E+00

     total cpu time spent up to now is     1090.3 secs

     total energy              =   -3754.19583970 Ry
     estimated scf accuracy    <       0.00001961 Ry

     iteration # 88     ecut=    30.00 Ry     beta= 0.40
     Davidson diagonalization with overlap
     ethr =  5.31E-09,  avg # of iterations =  3.0

     negative rho (up, down):  1.608E+00 0.000E+00

     total cpu time spent up to now is     1102.5 secs

     total energy              =   -3754.19573779 Ry
     estimated scf accuracy    <       0.00007010 Ry

     iteration # 89     ecut=    30.00 Ry     beta= 0.40
     Davidson diagonalization with overlap
     ethr =  5.31E-09,  avg # of iterations =  3.0

     negative rho (up, down):  1.608E+00 0.000E+00

     total cpu time spent up to now is     1114.7 secs

     total energy              =   -3754.19562496 Ry
     estimated scf accuracy    <       0.00011057 Ry

     iteration # 90     ecut=    30.00 Ry     beta= 0.40
     Davidson diagonalization with overlap
     ethr =  5.31E-09,  avg # of iterations =  3.0

     negative rho (up, down):  1.609E+00 0.000E+00

     total cpu time spent up to now is     1126.9 secs

     total energy              =   -3754.19536434 Ry
     estimated scf accuracy    <       0.00014967 Ry

     iteration # 91     ecut=    30.00 Ry     beta= 0.40
     Davidson diagonalization with overlap
     ethr =  5.31E-09,  avg # of iterations =  3.0

     negative rho (up, down):  1.610E+00 0.000E+00

     total cpu time spent up to now is     1139.1 secs

     total energy              =   -3754.19490411 Ry
     estimated scf accuracy    <       0.00020224 Ry

     iteration # 92     ecut=    30.00 Ry     beta= 0.40
     Davidson diagonalization with overlap
     ethr =  5.31E-09,  avg # of iterations =  3.0

     negative rho (up, down):  1.612E+00 0.000E+00

     total cpu time spent up to now is     1151.3 secs

     total energy              =   -3754.19426314 Ry
     estimated scf accuracy    <       0.00028867 Ry

     iteration # 93     ecut=    30.00 Ry     beta= 0.40
     Davidson diagonalization with overlap
     ethr =  5.31E-09,  avg # of iterations =  3.0

     negative rho (up, down):  1.612E+00 0.000E+00

     total cpu time spent up to now is     1163.4 secs

     total energy              =   -3754.19405954 Ry
     estimated scf accuracy    <       0.00039796 Ry

     iteration # 94     ecut=    30.00 Ry     beta= 0.40
     Davidson diagonalization with overlap
     ethr =  5.31E-09,  avg # of iterations =  3.0

     negative rho (up, down):  1.613E+00 0.000E+00

     total cpu time spent up to now is     1175.5 secs

     total energy              =   -3754.19350566 Ry
     estimated scf accuracy    <       0.00043403 Ry

     iteration # 95     ecut=    30.00 Ry     beta= 0.40
     Davidson diagonalization with overlap
     ethr =  5.31E-09,  avg # of iterations =  3.0

     negative rho (up, down):  1.613E+00 0.000E+00

     total cpu time spent up to now is     1187.7 secs

     total energy              =   -3754.19343172 Ry
     estimated scf accuracy    <       0.00052145 Ry

     iteration # 96     ecut=    30.00 Ry     beta= 0.40
     Davidson diagonalization with overlap
     ethr =  5.31E-09,  avg # of iterations =  3.0

     negative rho (up, down):  1.614E+00 0.000E+00

     total cpu time spent up to now is     1200.0 secs

     total energy              =   -3754.19300178 Ry
     estimated scf accuracy    <       0.00053946 Ry

     iteration # 97     ecut=    30.00 Ry     beta= 0.40
     Davidson diagonalization with overlap
     ethr =  5.31E-09,  avg # of iterations =  3.0

     negative rho (up, down):  1.614E+00 0.000E+00

     total cpu time spent up to now is     1212.2 secs

     total energy              =   -3754.19318518 Ry
     estimated scf accuracy    <       0.00060804 Ry

     iteration # 98     ecut=    30.00 Ry     beta= 0.40
     Davidson diagonalization with overlap
     ethr =  5.31E-09,  avg # of iterations =  3.0

     negative rho (up, down):  1.615E+00 0.000E+00

     total cpu time spent up to now is     1224.5 secs

     total energy              =   -3754.19244055 Ry
     estimated scf accuracy    <       0.00059298 Ry

     iteration # 99     ecut=    30.00 Ry     beta= 0.40
     Davidson diagonalization with overlap
     ethr =  5.31E-09,  avg # of iterations =  3.0

     negative rho (up, down):  1.616E+00 0.000E+00

     total cpu time spent up to now is     1236.7 secs

     total energy              =   -3754.19158056 Ry
     estimated scf accuracy    <       0.00070361 Ry

     iteration #100     ecut=    30.00 Ry     beta= 0.40
     Davidson diagonalization with overlap
     ethr =  5.31E-09,  avg # of iterations =  3.0

     negative rho (up, down):  1.617E+00 0.000E+00

     total cpu time spent up to now is     1248.9 secs

     total energy              =   -3754.19076153 Ry
     estimated scf accuracy    <       0.00082664 Ry

     iteration #101     ecut=    30.00 Ry     beta= 0.40
     Davidson diagonalization with overlap
     ethr =  5.31E-09,  avg # of iterations =  3.0

     negative rho (up, down):  1.626E+00 0.000E+00

     total cpu time spent up to now is     1261.2 secs

     total energy              =   -3754.18416481 Ry
     estimated scf accuracy    <       0.00095148 Ry

     iteration #102     ecut=    30.00 Ry     beta= 0.40
     Davidson diagonalization with overlap
     ethr =  5.31E-09,  avg # of iterations =  7.0

     negative rho (up, down):  1.627E+00 0.000E+00

     total cpu time spent up to now is     1273.6 secs

     total energy              =   -3754.18198851 Ry
     estimated scf accuracy    <       0.00231263 Ry

     iteration #103     ecut=    30.00 Ry     beta= 0.40
     Davidson diagonalization with overlap
     ethr =  5.31E-09,  avg # of iterations =  7.0

     negative rho (up, down):  1.627E+00 0.000E+00

     total cpu time spent up to now is     1286.0 secs

     total energy              =   -3754.18139261 Ry
     estimated scf accuracy    <       0.00222013 Ry

     iteration #104     ecut=    30.00 Ry     beta= 0.40
     Davidson diagonalization with overlap
     ethr =  5.31E-09,  avg # of iterations =  9.0

     negative rho (up, down):  1.633E+00 0.000E+00

     total cpu time spent up to now is     1298.4 secs

     total energy              =   -3754.17577139 Ry
     estimated scf accuracy    <       0.00262837 Ry

     iteration #105     ecut=    30.00 Ry     beta= 0.40
     Davidson diagonalization with overlap
     ethr =  5.31E-09,  avg # of iterations =  7.0

     negative rho (up, down):  1.613E+00 0.000E+00

     total cpu time spent up to now is     1310.7 secs

     total energy              =   -3754.18905912 Ry
     estimated scf accuracy    <       0.00292126 Ry

     iteration #106     ecut=    30.00 Ry     beta= 0.40
     Davidson diagonalization with overlap
     ethr =  5.31E-09,  avg # of iterations =  8.0

     negative rho (up, down):  1.606E+00 0.000E+00

     total cpu time spent up to now is     1323.2 secs

     total energy              =   -3754.19465297 Ry
     estimated scf accuracy    <       0.00148305 Ry

     iteration #107     ecut=    30.00 Ry     beta= 0.40
     Davidson diagonalization with overlap
     ethr =  5.31E-09,  avg # of iterations =  7.0

     negative rho (up, down):  1.606E+00 0.000E+00

     total cpu time spent up to now is     1335.6 secs

     total energy              =   -3754.19583621 Ry
     estimated scf accuracy    <       0.00051336 Ry

     iteration #108     ecut=    30.00 Ry     beta= 0.40
     Davidson diagonalization with overlap
     ethr =  5.31E-09,  avg # of iterations =  5.0

     negative rho (up, down):  1.608E+00 0.000E+00

     total cpu time spent up to now is     1347.8 secs

     total energy              =   -3754.19643648 Ry
     estimated scf accuracy    <       0.00030828 Ry

     iteration #109     ecut=    30.00 Ry     beta= 0.40
     Davidson diagonalization with overlap
     ethr =  5.31E-09,  avg # of iterations =  6.0

     negative rho (up, down):  1.609E+00 0.000E+00

     total cpu time spent up to now is     1360.1 secs

     total energy              =   -3754.19736179 Ry
     estimated scf accuracy    <       0.00034375 Ry

     iteration #110     ecut=    30.00 Ry     beta= 0.40
     Davidson diagonalization with overlap
     ethr =  5.31E-09,  avg # of iterations =  8.0

     negative rho (up, down):  1.610E+00 0.000E+00

     total cpu time spent up to now is     1372.5 secs

     total energy              =   -3754.19746975 Ry
     estimated scf accuracy    <       0.00017528 Ry

     iteration #111     ecut=    30.00 Ry     beta= 0.40
     Davidson diagonalization with overlap
     ethr =  5.31E-09,  avg # of iterations =  8.0

     negative rho (up, down):  1.611E+00 0.000E+00

     total cpu time spent up to now is     1384.9 secs

     total energy              =   -3754.19757005 Ry
     estimated scf accuracy    <       0.00006518 Ry

     iteration #112     ecut=    30.00 Ry     beta= 0.40
     Davidson diagonalization with overlap
     ethr =  5.31E-09,  avg # of iterations =  6.0

     negative rho (up, down):  1.612E+00 0.000E+00

     total cpu time spent up to now is     1397.2 secs

     total energy              =   -3754.19758271 Ry
     estimated scf accuracy    <       0.00006462 Ry

     iteration #113     ecut=    30.00 Ry     beta= 0.40
     Davidson diagonalization with overlap
     ethr =  5.31E-09,  avg # of iterations =  6.0

     negative rho (up, down):  1.613E+00 0.000E+00

     total cpu time spent up to now is     1409.6 secs

     total energy              =   -3754.19765141 Ry
     estimated scf accuracy    <       0.00005642 Ry

     iteration #114     ecut=    30.00 Ry     beta= 0.40
     Davidson diagonalization with overlap
     ethr =  5.31E-09,  avg # of iterations =  3.0

     negative rho (up, down):  1.614E+00 0.000E+00

     total cpu time spent up to now is     1421.8 secs

     total energy              =   -3754.19770700 Ry
     estimated scf accuracy    <       0.00004528 Ry

     iteration #115     ecut=    30.00 Ry     beta= 0.40
     Davidson diagonalization with overlap
     ethr =  5.31E-09,  avg # of iterations =  7.0

     negative rho (up, down):  1.615E+00 0.000E+00

     total cpu time spent up to now is     1434.2 secs

     total energy              =   -3754.19779073 Ry
     estimated scf accuracy    <       0.00006513 Ry

     iteration #116     ecut=    30.00 Ry     beta= 0.40
     Davidson diagonalization with overlap
     ethr =  5.31E-09,  avg # of iterations =  7.0

     negative rho (up, down):  1.615E+00 0.000E+00

     total cpu time spent up to now is     1446.6 secs

     total energy              =   -3754.19787207 Ry
     estimated scf accuracy    <       0.00005053 Ry

     iteration #117     ecut=    30.00 Ry     beta= 0.40
     Davidson diagonalization with overlap
     ethr =  5.31E-09,  avg # of iterations =  6.0

     negative rho (up, down):  1.616E+00 0.000E+00

     total cpu time spent up to now is     1458.8 secs

     total energy              =   -3754.19792261 Ry
     estimated scf accuracy    <       0.00004884 Ry

     iteration #118     ecut=    30.00 Ry     beta= 0.40
     Davidson diagonalization with overlap
     ethr =  5.31E-09,  avg # of iterations =  6.0

     negative rho (up, down):  1.617E+00 0.000E+00

     total cpu time spent up to now is     1471.2 secs

     total energy              =   -3754.19797285 Ry
     estimated scf accuracy    <       0.00001547 Ry

     iteration #119     ecut=    30.00 Ry     beta= 0.40
     Davidson diagonalization with overlap
     ethr =  5.31E-09,  avg # of iterations =  3.0

     negative rho (up, down):  1.617E+00 0.000E+00

     total cpu time spent up to now is     1483.4 secs

     total energy              =   -3754.19803078 Ry
     estimated scf accuracy    <       0.00001468 Ry

     iteration #120     ecut=    30.00 Ry     beta= 0.40
     Davidson diagonalization with overlap
     ethr =  5.31E-09,  avg # of iterations =  6.0

     negative rho (up, down):  1.618E+00 0.000E+00

     total cpu time spent up to now is     1495.9 secs

     total energy              =   -3754.19807563 Ry
     estimated scf accuracy    <       0.00002775 Ry

     iteration #121     ecut=    30.00 Ry     beta= 0.40
     Davidson diagonalization with overlap
     ethr =  5.31E-09,  avg # of iterations =  3.0

     negative rho (up, down):  1.618E+00 0.000E+00

     total cpu time spent up to now is     1508.0 secs

     total energy              =   -3754.19812810 Ry
     estimated scf accuracy    <       0.00003787 Ry

     iteration #122     ecut=    30.00 Ry     beta= 0.40
     Davidson diagonalization with overlap
     ethr =  5.31E-09,  avg # of iterations =  3.0

     negative rho (up, down):  1.619E+00 0.000E+00

     total cpu time spent up to now is     1520.2 secs

     total energy              =   -3754.19799484 Ry
     estimated scf accuracy    <       0.00001247 Ry

     iteration #123     ecut=    30.00 Ry     beta= 0.40
     Davidson diagonalization with overlap
     ethr =  5.31E-09,  avg # of iterations =  3.0

     negative rho (up, down):  1.619E+00 0.000E+00

     total cpu time spent up to now is     1532.4 secs

     total energy              =   -3754.19816069 Ry
     estimated scf accuracy    <       0.00007757 Ry

     iteration #124     ecut=    30.00 Ry     beta= 0.40
     Davidson diagonalization with overlap
     ethr =  5.31E-09,  avg # of iterations =  3.0

     negative rho (up, down):  1.619E+00 0.000E+00

     total cpu time spent up to now is     1544.6 secs

     total energy              =   -3754.19806900 Ry
     estimated scf accuracy    <       0.00006164 Ry

     iteration #125     ecut=    30.00 Ry     beta= 0.40
     Davidson diagonalization with overlap
     ethr =  5.31E-09,  avg # of iterations =  3.0

     negative rho (up, down):  1.619E+00 0.000E+00

     total cpu time spent up to now is     1556.8 secs

     total energy              =   -3754.19830703 Ry
     estimated scf accuracy    <       0.00008036 Ry

     iteration #126     ecut=    30.00 Ry     beta= 0.40
     Davidson diagonalization with overlap
     ethr =  5.31E-09,  avg # of iterations =  3.0

     negative rho (up, down):  1.619E+00 0.000E+00

     total cpu time spent up to now is     1568.9 secs

     total energy              =   -3754.19835531 Ry
     estimated scf accuracy    <       0.00003284 Ry

     iteration #127     ecut=    30.00 Ry     beta= 0.40
     Davidson diagonalization with overlap
     ethr =  5.31E-09,  avg # of iterations =  3.0

     negative rho (up, down):  1.620E+00 0.000E+00

     total cpu time spent up to now is     1581.2 secs

     total energy              =   -3754.19830500 Ry
     estimated scf accuracy    <       0.00003210 Ry

     iteration #128     ecut=    30.00 Ry     beta= 0.40
     Davidson diagonalization with overlap
     ethr =  5.31E-09,  avg # of iterations =  3.0

     negative rho (up, down):  1.620E+00 0.000E+00

     total cpu time spent up to now is     1593.3 secs

     total energy              =   -3754.19827740 Ry
     estimated scf accuracy    <       0.00005714 Ry

     iteration #129     ecut=    30.00 Ry     beta= 0.40
     Davidson diagonalization with overlap
     ethr =  5.31E-09,  avg # of iterations =  3.0

     negative rho (up, down):  1.620E+00 0.000E+00

     total cpu time spent up to now is     1605.5 secs

     total energy              =   -3754.19820133 Ry
     estimated scf accuracy    <       0.00007164 Ry

     iteration #130     ecut=    30.00 Ry     beta= 0.40
     Davidson diagonalization with overlap
     ethr =  5.31E-09,  avg # of iterations =  3.0

     negative rho (up, down):  1.620E+00 0.000E+00

     total cpu time spent up to now is     1617.7 secs

     total energy              =   -3754.19799852 Ry
     estimated scf accuracy    <       0.00009446 Ry

     iteration #131     ecut=    30.00 Ry     beta= 0.40
     Davidson diagonalization with overlap
     ethr =  5.31E-09,  avg # of iterations =  3.0

     negative rho (up, down):  1.620E+00 0.000E+00

     total cpu time spent up to now is     1629.8 secs

     total energy              =   -3754.19771519 Ry
     estimated scf accuracy    <       0.00013650 Ry

     iteration #132     ecut=    30.00 Ry     beta= 0.40
     Davidson diagonalization with overlap
     ethr =  5.31E-09,  avg # of iterations =  3.0

     negative rho (up, down):  1.620E+00 0.000E+00

     total cpu time spent up to now is     1642.0 secs

     total energy              =   -3754.19764454 Ry
     estimated scf accuracy    <       0.00018818 Ry

     iteration #133     ecut=    30.00 Ry     beta= 0.40
     Davidson diagonalization with overlap
     ethr =  5.31E-09,  avg # of iterations =  3.0

     negative rho (up, down):  1.621E+00 0.000E+00

     total cpu time spent up to now is     1654.1 secs

     total energy              =   -3754.19710495 Ry
     estimated scf accuracy    <       0.00020525 Ry

     iteration #134     ecut=    30.00 Ry     beta= 0.40
     Davidson diagonalization with overlap
     ethr =  5.31E-09,  avg # of iterations =  3.0

     negative rho (up, down):  1.621E+00 0.000E+00

     total cpu time spent up to now is     1666.2 secs

     total energy              =   -3754.19739005 Ry
     estimated scf accuracy    <       0.00028993 Ry

     iteration #135     ecut=    30.00 Ry     beta= 0.40
     Davidson diagonalization with overlap
     ethr =  5.31E-09,  avg # of iterations =  3.0

     negative rho (up, down):  1.621E+00 0.000E+00

     total cpu time spent up to now is     1678.4 secs

     total energy              =   -3754.19751469 Ry
     estimated scf accuracy    <       0.00025427 Ry

     iteration #136     ecut=    30.00 Ry     beta= 0.40
     Davidson diagonalization with overlap
     ethr =  5.31E-09,  avg # of iterations =  3.0

     negative rho (up, down):  1.621E+00 0.000E+00

     total cpu time spent up to now is     1690.7 secs

     total energy              =   -3754.19746371 Ry
     estimated scf accuracy    <       0.00024139 Ry

     iteration #137     ecut=    30.00 Ry     beta= 0.40
     Davidson diagonalization with overlap
     ethr =  5.31E-09,  avg # of iterations =  3.0

     negative rho (up, down):  1.621E+00 0.000E+00

     total cpu time spent up to now is     1702.9 secs

     total energy              =   -3754.19721662 Ry
     estimated scf accuracy    <       0.00025433 Ry

     iteration #138     ecut=    30.00 Ry     beta= 0.40
     Davidson diagonalization with overlap
     ethr =  5.31E-09,  avg # of iterations =  3.0

     negative rho (up, down):  1.621E+00 0.000E+00

     total cpu time spent up to now is     1715.1 secs

     total energy              =   -3754.19682399 Ry
     estimated scf accuracy    <       0.00029468 Ry

     iteration #139     ecut=    30.00 Ry     beta= 0.40
     Davidson diagonalization with overlap
     ethr =  5.31E-09,  avg # of iterations =  3.0

     negative rho (up, down):  1.620E+00 0.000E+00

     total cpu time spent up to now is     1727.3 secs

     total energy              =   -3754.19796833 Ry
     estimated scf accuracy    <       0.00035364 Ry

     iteration #140     ecut=    30.00 Ry     beta= 0.40
     Davidson diagonalization with overlap
     ethr =  5.31E-09,  avg # of iterations =  3.0

     negative rho (up, down):  1.621E+00 0.000E+00

     total cpu time spent up to now is     1739.6 secs

     total energy              =   -3754.19777772 Ry
     estimated scf accuracy    <       0.00020685 Ry

     iteration #141     ecut=    30.00 Ry     beta= 0.40
     Davidson diagonalization with overlap
     ethr =  5.31E-09,  avg # of iterations =  3.0

     negative rho (up, down):  1.621E+00 0.000E+00

     total cpu time spent up to now is     1751.8 secs

     total energy              =   -3754.19752772 Ry
     estimated scf accuracy    <       0.00022705 Ry

     iteration #142     ecut=    30.00 Ry     beta= 0.40
     Davidson diagonalization with overlap
     ethr =  5.31E-09,  avg # of iterations =  3.0

     negative rho (up, down):  1.621E+00 0.000E+00

     total cpu time spent up to now is     1764.0 secs

     total energy              =   -3754.19755900 Ry
     estimated scf accuracy    <       0.00026436 Ry

     iteration #143     ecut=    30.00 Ry     beta= 0.40
     Davidson diagonalization with overlap
     ethr =  5.31E-09,  avg # of iterations =  3.0

     negative rho (up, down):  1.621E+00 0.000E+00

     total cpu time spent up to now is     1776.2 secs

     total energy              =   -3754.19684969 Ry
     estimated scf accuracy    <       0.00038920 Ry

     iteration #144     ecut=    30.00 Ry     beta= 0.40
     Davidson diagonalization with overlap
     ethr =  5.31E-09,  avg # of iterations =  5.0

     negative rho (up, down):  1.620E+00 0.000E+00

     total cpu time spent up to now is     1788.6 secs

     total energy              =   -3754.19802965 Ry
     estimated scf accuracy    <       0.00036952 Ry

     iteration #145     ecut=    30.00 Ry     beta= 0.40
     Davidson diagonalization with overlap
     ethr =  5.31E-09,  avg # of iterations =  3.0

     negative rho (up, down):  1.621E+00 0.000E+00

     total cpu time spent up to now is     1800.8 secs

     total energy              =   -3754.19832362 Ry
     estimated scf accuracy    <       0.00019938 Ry

     iteration #146     ecut=    30.00 Ry     beta= 0.40
     Davidson diagonalization with overlap
     ethr =  5.31E-09,  avg # of iterations =  7.0

     negative rho (up, down):  1.621E+00 0.000E+00

     total cpu time spent up to now is     1813.2 secs

     total energy              =   -3754.19913251 Ry
     estimated scf accuracy    <       0.00027000 Ry

     iteration #147     ecut=    30.00 Ry     beta= 0.40
     Davidson diagonalization with overlap
     ethr =  5.31E-09,  avg # of iterations =  7.0

     negative rho (up, down):  1.623E+00 0.000E+00

     total cpu time spent up to now is     1825.6 secs

     total energy              =   -3754.19868221 Ry
     estimated scf accuracy    <       0.00030855 Ry

     iteration #148     ecut=    30.00 Ry     beta= 0.40
     Davidson diagonalization with overlap
     ethr =  5.31E-09,  avg # of iterations =  7.0

     negative rho (up, down):  1.621E+00 0.000E+00

     total cpu time spent up to now is     1838.0 secs

     total energy              =   -3754.19916965 Ry
     estimated scf accuracy    <       0.00009286 Ry

     iteration #149     ecut=    30.00 Ry     beta= 0.40
     Davidson diagonalization with overlap
     ethr =  5.31E-09,  avg # of iterations =  7.0

     negative rho (up, down):  1.622E+00 0.000E+00

     total cpu time spent up to now is     1850.4 secs

     total energy              =   -3754.19919648 Ry
     estimated scf accuracy    <       0.00001363 Ry

     iteration #150     ecut=    30.00 Ry     beta= 0.40
     Davidson diagonalization with overlap
     ethr =  5.31E-09,  avg # of iterations =  3.0

     negative rho (up, down):  1.622E+00 0.000E+00

     total cpu time spent up to now is     1862.7 secs

     total energy              =   -3754.19921032 Ry
     estimated scf accuracy    <       0.00001945 Ry

     iteration #151     ecut=    30.00 Ry     beta= 0.40
     Davidson diagonalization with overlap
     ethr =  5.31E-09,  avg # of iterations =  2.0

     negative rho (up, down):  1.622E+00 0.000E+00

     total cpu time spent up to now is     1874.8 secs

     total energy              =   -3754.19922770 Ry
     estimated scf accuracy    <       0.00000919 Ry

     iteration #152     ecut=    30.00 Ry     beta= 0.40
     Davidson diagonalization with overlap
     ethr =  3.98E-09,  avg # of iterations =  3.0

     negative rho (up, down):  1.622E+00 0.000E+00

     total cpu time spent up to now is     1887.1 secs

     total energy              =   -3754.19911375 Ry
     estimated scf accuracy    <       0.00000742 Ry

     iteration #153     ecut=    30.00 Ry     beta= 0.40
     Davidson diagonalization with overlap
     ethr =  3.21E-09,  avg # of iterations =  3.0

     negative rho (up, down):  1.623E+00 0.000E+00

     total cpu time spent up to now is     1899.3 secs

     total energy              =   -3754.19925698 Ry
     estimated scf accuracy    <       0.00003867 Ry

     iteration #154     ecut=    30.00 Ry     beta= 0.40
     Davidson diagonalization with overlap
     ethr =  3.21E-09,  avg # of iterations =  3.0

     negative rho (up, down):  1.623E+00 0.000E+00

     total cpu time spent up to now is     1911.6 secs

     total energy              =   -3754.19928200 Ry
     estimated scf accuracy    <       0.00002012 Ry

     iteration #155     ecut=    30.00 Ry     beta= 0.40
     Davidson diagonalization with overlap
     ethr =  3.21E-09,  avg # of iterations =  3.0

     negative rho (up, down):  1.623E+00 0.000E+00

     total cpu time spent up to now is     1923.8 secs

     total energy              =   -3754.19929990 Ry
     estimated scf accuracy    <       0.00001138 Ry

     iteration #156     ecut=    30.00 Ry     beta= 0.40
     Davidson diagonalization with overlap
     ethr =  3.21E-09,  avg # of iterations =  3.0

     negative rho (up, down):  1.623E+00 0.000E+00

     total cpu time spent up to now is     1936.0 secs

     total energy              =   -3754.19930983 Ry
     estimated scf accuracy    <       0.00000439 Ry

     iteration #157     ecut=    30.00 Ry     beta= 0.40
     Davidson diagonalization with overlap
     ethr =  1.90E-09,  avg # of iterations =  3.0

     negative rho (up, down):  1.623E+00 0.000E+00

     total cpu time spent up to now is     1948.1 secs

     total energy              =   -3754.19930544 Ry
     estimated scf accuracy    <       0.00000848 Ry

     iteration #158     ecut=    30.00 Ry     beta= 0.40
     Davidson diagonalization with overlap
     ethr =  1.90E-09,  avg # of iterations =  3.0

     negative rho (up, down):  1.624E+00 0.000E+00

     total cpu time spent up to now is     1960.3 secs

     total energy              =   -3754.19933239 Ry
     estimated scf accuracy    <       0.00001568 Ry

     iteration #159     ecut=    30.00 Ry     beta= 0.40
     Davidson diagonalization with overlap
     ethr =  1.90E-09,  avg # of iterations =  3.0

     negative rho (up, down):  1.624E+00 0.000E+00

     total cpu time spent up to now is     1972.5 secs

     total energy              =   -3754.19933088 Ry
     estimated scf accuracy    <       0.00000986 Ry

     iteration #160     ecut=    30.00 Ry     beta= 0.40
     Davidson diagonalization with overlap
     ethr =  1.90E-09,  avg # of iterations =  3.0

     negative rho (up, down):  1.624E+00 0.000E+00

     total cpu time spent up to now is     1984.6 secs

     total energy              =   -3754.19932031 Ry
     estimated scf accuracy    <       0.00001397 Ry

     iteration #161     ecut=    30.00 Ry     beta= 0.40
     Davidson diagonalization with overlap
     ethr =  1.90E-09,  avg # of iterations =  3.0

     negative rho (up, down):  1.624E+00 0.000E+00

     total cpu time spent up to now is     1996.9 secs

     total energy              =   -3754.19923841 Ry
     estimated scf accuracy    <       0.00001902 Ry

     iteration #162     ecut=    30.00 Ry     beta= 0.40
     Davidson diagonalization with overlap
     ethr =  1.90E-09,  avg # of iterations =  3.0

     negative rho (up, down):  1.624E+00 0.000E+00

     total cpu time spent up to now is     2009.1 secs

     total energy              =   -3754.19901917 Ry
     estimated scf accuracy    <       0.00004015 Ry

     iteration #163     ecut=    30.00 Ry     beta= 0.40
     Davidson diagonalization with overlap
     ethr =  1.90E-09,  avg # of iterations =  3.0

     negative rho (up, down):  1.624E+00 0.000E+00

     total cpu time spent up to now is     2021.5 secs

     total energy              =   -3754.19892024 Ry
     estimated scf accuracy    <       0.00007347 Ry

     iteration #164     ecut=    30.00 Ry     beta= 0.40
     Davidson diagonalization with overlap
     ethr =  1.90E-09,  avg # of iterations =  3.0

     negative rho (up, down):  1.624E+00 0.000E+00

     total cpu time spent up to now is     2033.6 secs

     total energy              =   -3754.19902763 Ry
     estimated scf accuracy    <       0.00009095 Ry

     iteration #165     ecut=    30.00 Ry     beta= 0.40
     Davidson diagonalization with overlap
     ethr =  1.90E-09,  avg # of iterations =  3.0

     negative rho (up, down):  1.624E+00 0.000E+00

     total cpu time spent up to now is     2045.8 secs

     total energy              =   -3754.19909094 Ry
     estimated scf accuracy    <       0.00007603 Ry

     iteration #166     ecut=    30.00 Ry     beta= 0.40
     Davidson diagonalization with overlap
     ethr =  1.90E-09,  avg # of iterations =  3.0

     negative rho (up, down):  1.624E+00 0.000E+00

     total cpu time spent up to now is     2057.9 secs

     total energy              =   -3754.19903803 Ry
     estimated scf accuracy    <       0.00006843 Ry

     iteration #167     ecut=    30.00 Ry     beta= 0.40
     Davidson diagonalization with overlap
     ethr =  1.90E-09,  avg # of iterations =  3.0

     negative rho (up, down):  1.624E+00 0.000E+00

     total cpu time spent up to now is     2070.1 secs

     total energy              =   -3754.19901689 Ry
     estimated scf accuracy    <       0.00007864 Ry

     iteration #168     ecut=    30.00 Ry     beta= 0.40
     Davidson diagonalization with overlap
     ethr =  1.90E-09,  avg # of iterations =  3.0

     negative rho (up, down):  1.624E+00 0.000E+00

     total cpu time spent up to now is     2082.3 secs

     total energy              =   -3754.19895951 Ry
     estimated scf accuracy    <       0.00008201 Ry

     iteration #169     ecut=    30.00 Ry     beta= 0.40
     Davidson diagonalization with overlap
     ethr =  1.90E-09,  avg # of iterations =  3.0

     negative rho (up, down):  1.624E+00 0.000E+00

     total cpu time spent up to now is     2094.5 secs

     total energy              =   -3754.19870703 Ry
     estimated scf accuracy    <       0.00009264 Ry

     iteration #170     ecut=    30.00 Ry     beta= 0.40
     Davidson diagonalization with overlap
     ethr =  1.90E-09,  avg # of iterations =  3.0

     negative rho (up, down):  1.624E+00 0.000E+00

     total cpu time spent up to now is     2106.7 secs

     total energy              =   -3754.19890529 Ry
     estimated scf accuracy    <       0.00012932 Ry

     iteration #171     ecut=    30.00 Ry     beta= 0.40
     Davidson diagonalization with overlap
     ethr =  1.90E-09,  avg # of iterations =  6.0

     negative rho (up, down):  1.624E+00 0.000E+00

     total cpu time spent up to now is     2118.9 secs

     total energy              =   -3754.19951491 Ry
     estimated scf accuracy    <       0.00013125 Ry

     iteration #172     ecut=    30.00 Ry     beta= 0.40
     Davidson diagonalization with overlap
     ethr =  1.90E-09,  avg # of iterations =  8.0

     negative rho (up, down):  1.624E+00 0.000E+00

     total cpu time spent up to now is     2131.4 secs

     total energy              =   -3754.19947074 Ry
     estimated scf accuracy    <       0.00000677 Ry

     iteration #173     ecut=    30.00 Ry     beta= 0.40
     Davidson diagonalization with overlap
     ethr =  1.90E-09,  avg # of iterations =  3.0

     negative rho (up, down):  1.624E+00 0.000E+00

     total cpu time spent up to now is     2143.6 secs

     total energy              =   -3754.19941125 Ry
     estimated scf accuracy    <       0.00001881 Ry

     iteration #174     ecut=    30.00 Ry     beta= 0.40
     Davidson diagonalization with overlap
     ethr =  1.90E-09,  avg # of iterations =  6.0

     negative rho (up, down):  1.624E+00 0.000E+00

     total cpu time spent up to now is     2156.1 secs

     total energy              =   -3754.19941798 Ry
     estimated scf accuracy    <       0.00004107 Ry

     iteration #175     ecut=    30.00 Ry     beta= 0.40
     Davidson diagonalization with overlap
     ethr =  1.90E-09,  avg # of iterations =  3.0

     negative rho (up, down):  1.624E+00 0.000E+00

     total cpu time spent up to now is     2168.3 secs

     total energy              =   -3754.19943481 Ry
     estimated scf accuracy    <       0.00003139 Ry

     iteration #176     ecut=    30.00 Ry     beta= 0.40
     Davidson diagonalization with overlap
     ethr =  1.90E-09,  avg # of iterations =  3.0

     negative rho (up, down):  1.624E+00 0.000E+00

     total cpu time spent up to now is     2180.6 secs

     total energy              =   -3754.19936557 Ry
     estimated scf accuracy    <       0.00003136 Ry

     iteration #177     ecut=    30.00 Ry     beta= 0.40
     Davidson diagonalization with overlap
     ethr =  1.90E-09,  avg # of iterations =  3.0

     negative rho (up, down):  1.624E+00 0.000E+00

     total cpu time spent up to now is     2192.9 secs

     total energy              =   -3754.19942776 Ry
     estimated scf accuracy    <       0.00004362 Ry

     iteration #178     ecut=    30.00 Ry     beta= 0.40
     Davidson diagonalization with overlap
     ethr =  1.90E-09,  avg # of iterations =  3.0

     negative rho (up, down):  1.625E+00 0.000E+00

     total cpu time spent up to now is     2205.1 secs

     total energy              =   -3754.19957757 Ry
     estimated scf accuracy    <       0.00003653 Ry

     iteration #179     ecut=    30.00 Ry     beta= 0.40
     Davidson diagonalization with overlap
     ethr =  1.90E-09,  avg # of iterations =  3.0

     negative rho (up, down):  1.625E+00 0.000E+00

     total cpu time spent up to now is     2217.4 secs

     total energy              =   -3754.19935524 Ry
     estimated scf accuracy    <       0.00001760 Ry

     iteration #180     ecut=    30.00 Ry     beta= 0.40
     Davidson diagonalization with overlap
     ethr =  1.90E-09,  avg # of iterations =  3.0

     negative rho (up, down):  1.625E+00 0.000E+00

     total cpu time spent up to now is     2229.7 secs

     total energy              =   -3754.19928797 Ry
     estimated scf accuracy    <       0.00004990 Ry

     iteration #181     ecut=    30.00 Ry     beta= 0.40
     Davidson diagonalization with overlap
     ethr =  1.90E-09,  avg # of iterations =  3.0

     negative rho (up, down):  1.625E+00 0.000E+00

     total cpu time spent up to now is     2242.0 secs

     total energy              =   -3754.19920100 Ry
     estimated scf accuracy    <       0.00006149 Ry

     iteration #182     ecut=    30.00 Ry     beta= 0.40
     Davidson diagonalization with overlap
     ethr =  1.90E-09,  avg # of iterations =  3.0

     negative rho (up, down):  1.625E+00 0.000E+00

     total cpu time spent up to now is     2254.2 secs

     total energy              =   -3754.19919965 Ry
     estimated scf accuracy    <       0.00007640 Ry

     iteration #183     ecut=    30.00 Ry     beta= 0.40
     Davidson diagonalization with overlap
     ethr =  1.90E-09,  avg # of iterations =  3.0

     negative rho (up, down):  1.625E+00 0.000E+00

     total cpu time spent up to now is     2266.5 secs

     total energy              =   -3754.19916772 Ry
     estimated scf accuracy    <       0.00007550 Ry

     iteration #184     ecut=    30.00 Ry     beta= 0.40
     Davidson diagonalization with overlap
     ethr =  1.90E-09,  avg # of iterations =  3.0

     negative rho (up, down):  1.625E+00 0.000E+00

     total cpu time spent up to now is     2278.8 secs

     total energy              =   -3754.19912329 Ry
     estimated scf accuracy    <       0.00008212 Ry

     iteration #185     ecut=    30.00 Ry     beta= 0.40
     Davidson diagonalization with overlap
     ethr =  1.90E-09,  avg # of iterations =  3.0

     negative rho (up, down):  1.625E+00 0.000E+00

     total cpu time spent up to now is     2291.1 secs

     total energy              =   -3754.19902630 Ry
     estimated scf accuracy    <       0.00009368 Ry

     iteration #186     ecut=    30.00 Ry     beta= 0.40
     Davidson diagonalization with overlap
     ethr =  1.90E-09,  avg # of iterations =  3.0

     negative rho (up, down):  1.625E+00 0.000E+00

     total cpu time spent up to now is     2303.4 secs

     total energy              =   -3754.19895976 Ry
     estimated scf accuracy    <       0.00010368 Ry

     iteration #187     ecut=    30.00 Ry     beta= 0.40
     Davidson diagonalization with overlap
     ethr =  1.90E-09,  avg # of iterations =  3.0

     negative rho (up, down):  1.625E+00 0.000E+00

     total cpu time spent up to now is     2315.6 secs

     total energy              =   -3754.19880605 Ry
     estimated scf accuracy    <       0.00011410 Ry

     iteration #188     ecut=    30.00 Ry     beta= 0.40
     Davidson diagonalization with overlap
     ethr =  1.90E-09,  avg # of iterations =  3.0

     negative rho (up, down):  1.625E+00 0.000E+00

     total cpu time spent up to now is     2327.8 secs

     total energy              =   -3754.19866749 Ry
     estimated scf accuracy    <       0.00013716 Ry

     iteration #189     ecut=    30.00 Ry     beta= 0.40
     Davidson diagonalization with overlap
     ethr =  1.90E-09,  avg # of iterations =  3.0

     negative rho (up, down):  1.625E+00 0.000E+00

     total cpu time spent up to now is     2340.1 secs

     total energy              =   -3754.19784648 Ry
     estimated scf accuracy    <       0.00015805 Ry

     iteration #190     ecut=    30.00 Ry     beta= 0.40
     Davidson diagonalization with overlap
     ethr =  1.90E-09,  avg # of iterations =  6.0

     negative rho (up, down):  1.625E+00 0.000E+00

     total cpu time spent up to now is     2352.4 secs

     total energy              =   -3754.19763204 Ry
     estimated scf accuracy    <       0.00028971 Ry

     iteration #191     ecut=    30.00 Ry     beta= 0.40
     Davidson diagonalization with overlap
     ethr =  1.90E-09,  avg # of iterations =  6.0

     negative rho (up, down):  1.625E+00 0.000E+00

     total cpu time spent up to now is     2364.6 secs

     total energy              =   -3754.19703832 Ry
     estimated scf accuracy    <       0.00033898 Ry

     iteration #192     ecut=    30.00 Ry     beta= 0.40
     Davidson diagonalization with overlap
     ethr =  1.90E-09,  avg # of iterations =  6.0

     negative rho (up, down):  1.624E+00 0.000E+00

     total cpu time spent up to now is     2376.9 secs

     total energy              =   -3754.19854156 Ry
     estimated scf accuracy    <       0.00037268 Ry

     iteration #193     ecut=    30.00 Ry     beta= 0.40
     Davidson diagonalization with overlap
     ethr =  1.90E-09,  avg # of iterations =  9.0

     negative rho (up, down):  1.624E+00 0.000E+00

     total cpu time spent up to now is     2389.4 secs

     total energy              =   -3754.19919933 Ry
     estimated scf accuracy    <       0.00023785 Ry

     iteration #194     ecut=    30.00 Ry     beta= 0.40
     Davidson diagonalization with overlap
     ethr =  1.90E-09,  avg # of iterations =  6.0

     negative rho (up, down):  1.624E+00 0.000E+00

     total cpu time spent up to now is     2401.8 secs

     total energy              =   -3754.19926263 Ry
     estimated scf accuracy    <       0.00009614 Ry

     iteration #195     ecut=    30.00 Ry     beta= 0.40
     Davidson diagonalization with overlap
     ethr =  1.90E-09,  avg # of iterations =  3.0

     negative rho (up, down):  1.624E+00 0.000E+00

     total cpu time spent up to now is     2414.1 secs

     total energy              =   -3754.19949278 Ry
     estimated scf accuracy    <       0.00008673 Ry

     iteration #196     ecut=    30.00 Ry     beta= 0.40
     Davidson diagonalization with overlap
     ethr =  1.90E-09,  avg # of iterations =  3.0

     negative rho (up, down):  1.624E+00 0.000E+00

     total cpu time spent up to now is     2426.3 secs

     total energy              =   -3754.19958392 Ry
     estimated scf accuracy    <       0.00005877 Ry

     iteration #197     ecut=    30.00 Ry     beta= 0.40
     Davidson diagonalization with overlap
     ethr =  1.90E-09,  avg # of iterations =  3.0

     negative rho (up, down):  1.624E+00 0.000E+00

     total cpu time spent up to now is     2438.5 secs

     total energy              =   -3754.19980686 Ry
     estimated scf accuracy    <       0.00004298 Ry

     iteration #198     ecut=    30.00 Ry     beta= 0.40
     Davidson diagonalization with overlap
     ethr =  1.90E-09,  avg # of iterations =  3.0

     negative rho (up, down):  1.624E+00 0.000E+00

     total cpu time spent up to now is     2450.7 secs

     total energy              =   -3754.19981271 Ry
     estimated scf accuracy    <       0.00000632 Ry

     iteration #199     ecut=    30.00 Ry     beta= 0.40
     Davidson diagonalization with overlap
     ethr =  1.90E-09,  avg # of iterations =  3.0

     negative rho (up, down):  1.624E+00 0.000E+00

     total cpu time spent up to now is     2462.9 secs

     total energy              =   -3754.19980625 Ry
     estimated scf accuracy    <       0.00000527 Ry

     iteration #200     ecut=    30.00 Ry     beta= 0.40
     Davidson diagonalization with overlap
     ethr =  1.90E-09,  avg # of iterations =  3.0

     negative rho (up, down):  1.624E+00 0.000E+00

     total cpu time spent up to now is     2475.1 secs

     total energy              =   -3754.19980864 Ry
     estimated scf accuracy    <       0.00001279 Ry

     End of self-consistent calculation

     convergence NOT achieved after 200 iterations: stopping

     Writing config to output data dir /root/qe_scratch/cand264_A_TiS2_Bi.save/ :
     XML data file, charge density distributed wavefunctions
 
     init_run     :     15.04s CPU     19.21s WALL (       1 calls)
     electrons    :   2002.35s CPU   2454.92s WALL (       1 calls)

     Called by init_run:
     wfcinit      :      0.21s CPU      0.41s WALL (       1 calls)
     potinit      :     14.05s CPU     17.75s WALL (       1 calls)
     hinit0       :      0.53s CPU      0.61s WALL (       1 calls)

     Called by electrons:
     c_bands      :     64.98s CPU     65.24s WALL (     200 calls)
     sum_band     :     18.44s CPU     18.52s WALL (     200 calls)
     v_of_rho     :     14.75s CPU     19.66s WALL (     201 calls)
     newd         :     10.30s CPU     10.78s WALL (     201 calls)
                                       10.78s GPU  (     201 calls)
     PAW_pot      :   1869.30s CPU   2311.93s WALL (     201 calls)
     mix_rho      :      8.45s CPU      8.69s WALL (     200 calls)

     Called by c_bands:
     init_us_2    :      0.47s CPU      0.48s WALL (     401 calls)
     cegterg      :     63.36s CPU     63.57s WALL (     200 calls)

     Called by *egterg:
     cdiaghg      :      9.64s CPU      9.72s WALL (    1080 calls)
                                        9.71s GPU  (    1080 calls)
     h_psi        :     25.58s CPU     25.94s WALL (    1081 calls)
                                       25.93s GPU  (    1081 calls)
     s_psi        :      1.31s CPU      1.32s WALL (    1081 calls)
     g_psi        :      0.01s CPU      0.11s WALL (     880 calls)
                                        0.11s GPU  (     880 calls)

     Called by h_psi:
     h_psi:calbec :      0.12s CPU      6.95s WALL (    1081 calls)
                                        6.94s GPU  (    1081 calls)
     vloc_psi     :     11.29s CPU     11.44s WALL (    1081 calls)
                                       11.44s GPU  (    1081 calls)
     add_vuspsi   :      1.28s CPU      7.44s WALL (    1081 calls)
                                        7.44s GPU  (    1081 calls)

     General routines
     calbec       :      0.13s CPU      0.30s WALL (    1281 calls)
     fft          :     17.90s CPU     24.08s WALL (    2613 calls)
                                        0.42s GPU  (    2412 calls)
     ffts         :      6.07s CPU      7.60s WALL (     401 calls)
                                        0.02s GPU  (     200 calls)
     fftw         :      0.17s CPU     11.10s WALL (   11628 calls)
                                       11.06s GPU  (   11628 calls)
     interpolate  :     25.00s CPU     32.37s WALL (     201 calls)
     davcio       :      0.01s CPU      0.08s WALL (      19 calls)
 
     Parallel routines
 
     PWSCF        :  33m38.45s CPU  41m15.30s WALL

 
   This run was terminated on:   4:36: 0   7May2026            

=------------------------------------------------------------------------------=
   JOB DONE.
=------------------------------------------------------------------------------=
Warning: ieee_invalid is signaling
Warning: ieee_divide_by_zero is signaling
Warning: ieee_inexact is signaling
FORTRAN STOP
