--------------------------------------------------------------------------
WARNING: Open MPI tried to bind a process but failed.  This is a
warning only; your job will continue, though performance may
be degraded.

  Local host:        3253031b5b37
  Application name:  /root/qe-7.3.1/bin/pw.x
  Error message:     failed to bind memory
  Location:          ../../../../../orte/mca/rtc/hwloc/rtc_hwloc.c:447

--------------------------------------------------------------------------

     Program PWSCF v.7.3.1 starts on  7May2026 at  2: 4:19 

     This program is part of the open-source Quantum ESPRESSO suite
     for quantum simulation of materials; please cite
         "P. Giannozzi et al., J. Phys.:Condens. Matter 21 395502 (2009);
         "P. Giannozzi et al., J. Phys.:Condens. Matter 29 465901 (2017);
         "P. Giannozzi et al., J. Chem. Phys. 152 154105 (2020);
          URL http://www.quantum-espresso.org", 
     in publications or presentations arising from this work. More details at
     http://www.quantum-espresso.org/quote

     Parallel version (MPI & OpenMP), running on       8 processor cores
     Number of MPI processes:                 1
     Threads/MPI process:                     8

     MPI processes distributed on     1 nodes
     91772 MiB available memory on the printing compute node when the environment starts
 
     Reading input from cand003_A_SnS2_La.in

     Current dimensions of program PWSCF are:
     Max number of different atomic species (ntypx) = 10
     Max number of k-points (npk) =  40000
     Max angular momentum in pseudopotentials (lmaxx) =  4
     file La.UPF: wavefunction(s)  5S 5D 4F renormalized
     file S.UPF: wavefunction(s)  3S 3P renormalized
     file Sn.UPF: wavefunction(s)  5S 4D renormalized
 
     Subspace diagonalization in iterative solution of the eigenvalue problem:
     a serial algorithm will be used

 
     G-vector sticks info
     --------------------
     sticks:   dense  smooth     PW     G-vecs:    dense   smooth      PW
     Sum        5197    3463    859               509859   277387   34603
 
     Using Slab Decomposition
 


     bravais-lattice index     =            0
     lattice parameter (alat)  =      20.4672  a.u.
     unit-cell volume          =   12496.6279 (a.u.)^3
     number of atoms/cell      =           28
     number of atomic types    =            3
     number of electrons       =       245.00
     number of Kohn-Sham states=          148
     kinetic-energy cutoff     =      30.0000  Ry
     charge density cutoff     =     180.0000  Ry
     scf convergence threshold =      1.0E-07
     mixing beta               =       0.4000
     number of iterations used =            8  plain     mixing
     Exchange-correlation= PBE
                           (   1   4   3   4   0   0   0)

     GPU acceleration is ACTIVE.  1 visible GPUs per MPI rank


     celldm(1)=  20.467172  celldm(2)=   0.000000  celldm(3)=   0.000000
     celldm(4)=   0.000000  celldm(5)=   0.000000  celldm(6)=   0.000000

     crystal axes: (cart. coord. in units of alat)
               a(1) = (   1.000000   0.000000   0.000000 )  
               a(2) = (  -0.500000   0.866025   0.000000 )  
               a(3) = (   0.000000   0.000000   1.683018 )  

     reciprocal axes: (cart. coord. in units 2 pi/alat)
               b(1) = (  1.000000  0.577350 -0.000000 )  
               b(2) = (  0.000000  1.154701  0.000000 )  
               b(3) = (  0.000000 -0.000000  0.594171 )  


     PseudoPot. # 1 for La read from file:
     /root/qe_pseudos/La.UPF
     MD5 check sum: 6e6ac421535d279511fd22156ed99225
     Pseudo is Projector augmented-wave + core cor, Zval = 11.0
     Generated using &quot;atomic&quot; code by A. Dal Corso  v.6.2.2
     Shape of augmentation charge: PSQ
     Using radial grid of 1253 points,  8 beta functions with: 
                l(1) =   0
                l(2) =   0
                l(3) =   1
                l(4) =   1
                l(5) =   2
                l(6) =   2
                l(7) =   3
                l(8) =   3
     Q(r) pseudized with 0 coefficients 


     PseudoPot. # 2 for S  read from file:
     /root/qe_pseudos/S.UPF
     MD5 check sum: fb45dfebcf3e72a4e1bd4a866ec2e262
     Pseudo is Projector augmented-wave + core cor, Zval =  6.0
     Generated using &quot;atomic&quot; code by A. Dal Corso  v.6.3
     Shape of augmentation charge: PSQ
     Using radial grid of 1151 points,  6 beta functions with: 
                l(1) =   0
                l(2) =   0
                l(3) =   1
                l(4) =   1
                l(5) =   2
                l(6) =   2
     Q(r) pseudized with 0 coefficients 


     PseudoPot. # 3 for Sn read from file:
     /root/qe_pseudos/Sn.UPF
     MD5 check sum: 72e22d5a9e1ec4fde6a02e1f963898e9
     Pseudo is Ultrasoft + core correction, Zval = 14.0
     Generated using &quot;atomic&quot; code by A. Dal Corso  v.6.3
     Using radial grid of 1243 points,  6 beta functions with: 
                l(1) =   0
                l(2) =   0
                l(3) =   1
                l(4) =   1
                l(5) =   2
                l(6) =   2
     Q(r) pseudized with 0 coefficients 


     atomic species   valence    mass     pseudopotential
     La               11.00   138.90550     La( 1.00)
     S                 6.00    32.06000     S ( 1.00)
     Sn               14.00   118.71000     Sn( 1.00)

     No symmetry found



   Cartesian axes

     site n.     atom                  positions (alat units)
         1        S      tau(   1) = (   0.4900215   0.6588854   0.9985058  )
         2        S      tau(   2) = (   0.6538486   0.3745269   0.6834131  )
         3        S      tau(   3) = (   0.6537706   0.3750821   0.9996569  )
         4        S      tau(   4) = (   0.8128499   0.0820383   0.6726769  )
         5        S      tau(   5) = (   0.8125010   0.0813966   1.0112085  )
         6        S      tau(   6) = (   0.1665749   0.6751931   0.6901494  )
         7        S      tau(   7) = (   0.1666139   0.6751546   0.9924514  )
         8        S      tau(   8) = (   0.3278882   0.3829211   0.6923310  )
         9        S      tau(   9) = (   0.4898790   0.6587225   0.6843490  )
        10        S      tau(  10) = (   0.5023913   0.0962806   0.6905868  )
        11        S      tau(  11) = (   0.3273763   0.3832119   0.9904406  )
        12        S      tau(  12) = (  -0.1619037   0.6807095   0.6918187  )
        13        S      tau(  13) = (  -0.1615245   0.6799063   0.9918001  )
        14        S      tau(  14) = (  -0.0029154   0.3945453   0.6909524  )
        15        S      tau(  15) = (  -0.0023662   0.3945489   0.9914137  )
        16        S      tau(  16) = (   0.1829372   0.1026428   0.6875176  )
        17        S      tau(  17) = (   0.1824803   0.1023541   0.9950766  )
        18        S      tau(  18) = (   0.5021559   0.0966926   0.9930255  )
        19        Sn     tau(  19) = (   0.1686614   0.2852875   0.8412727  )
        20        Sn     tau(  20) = (   0.3448997   0.0032323   0.8413894  )
        21        Sn     tau(  21) = (   0.0058242   0.5909833   0.8413370  )
        22        Sn     tau(  22) = (  -0.3320475   0.5795064   0.8414597  )
        23        Sn     tau(  23) = (   0.6617638  -0.0015783   0.8415873  )
        24        Sn     tau(  24) = (   0.4974670   0.2854003   0.8414638  )
        25        Sn     tau(  25) = (  -0.1785087   0.3669810   0.8417125  )
        26        Sn     tau(  26) = (   0.3307502   0.5746836   0.8413294  )
        27        Sn     tau(  27) = (   0.0621188  -0.0444636   0.8414465  )
        28        La     tau(  28) = (  -0.0868409   0.1357718   0.8418753  )

     number of k points=     1  Methfessel-Paxton smearing, width (Ry)=  0.0100
                       cart. coord. in units 2pi/alat
        k(    1) = (   0.0000000   0.0000000   0.0000000), wk =   2.0000000

     Dense  grid:   509859 G-vectors     FFT dimensions: (  90,  90, 150)

     Smooth grid:   277387 G-vectors     FFT dimensions: (  72,  72, 125)

     Estimated max dynamical RAM per process >       5.28 GB

 %%%%%%%%%%%%%%%%%%%%%%%%%%%%%%%%%%%%%%%%%%%%%%%%%%%%%%%%%%%%%%%%%%%%%%%%%%%%%%
     Error in routine  ylmr2 (15):
     l too large, or wrong number of Ylm required
 %%%%%%%%%%%%%%%%%%%%%%%%%%%%%%%%%%%%%%%%%%%%%%%%%%%%%%%%%%%%%%%%%%%%%%%%%%%%%%

     stopping ...
--------------------------------------------------------------------------
MPI_ABORT was invoked on rank 0 in communicator MPI_COMM_WORLD
with errorcode 15.

NOTE: invoking MPI_ABORT causes Open MPI to kill all MPI processes.
You may or may not see output from other processes, depending on
exactly when Open MPI kills them.
--------------------------------------------------------------------------
