--------------------------------------------------------------------------
WARNING: Open MPI tried to bind a process but failed.  This is a
warning only; your job will continue, though performance may
be degraded.

  Local host:        3253031b5b37
  Application name:  /root/qe-7.3.1/bin/pw.x
  Error message:     failed to bind memory
  Location:          ../../../../../orte/mca/rtc/hwloc/rtc_hwloc.c:447

--------------------------------------------------------------------------

     Program PWSCF v.7.3.1 starts on  6May2026 at 14:54: 1 

     This program is part of the open-source Quantum ESPRESSO suite
     for quantum simulation of materials; please cite
         "P. Giannozzi et al., J. Phys.:Condens. Matter 21 395502 (2009);
         "P. Giannozzi et al., J. Phys.:Condens. Matter 29 465901 (2017);
         "P. Giannozzi et al., J. Chem. Phys. 152 154105 (2020);
          URL http://www.quantum-espresso.org", 
     in publications or presentations arising from this work. More details at
     http://www.quantum-espresso.org/quote

     Parallel version (MPI & OpenMP), running on       8 processor cores
     Number of MPI processes:                 1
     Threads/MPI process:                     8

     MPI processes distributed on     1 nodes
     81901 MiB available memory on the printing compute node when the environment starts
 
     Reading input from cand160_B_Ti2CO2_Y.in

     Current dimensions of program PWSCF are:
     Max number of different atomic species (ntypx) = 10
     Max number of k-points (npk) =  40000
     Max angular momentum in pseudopotentials (lmaxx) =  4
     file Ti.UPF: wavefunction(s)  3S 3P 3D renormalized
     file Y.UPF: wavefunction(s)  4S 4P renormalized
 
     Subspace diagonalization in iterative solution of the eigenvalue problem:
     a serial algorithm will be used

 
     G-vector sticks info
     --------------------
     sticks:   dense  smooth     PW     G-vecs:    dense   smooth      PW
     Sum        6505    4339   1069               681217   370707   46193
 
     Using Slab Decomposition
 


     bravais-lattice index     =            0
     lattice parameter (alat)  =      22.9196  a.u.
     unit-cell volume          =   16700.1634 (a.u.)^3
     number of atoms/cell      =           81
     number of atomic types    =            4
     number of electrons       =       651.00
     number of Kohn-Sham states=          391
     kinetic-energy cutoff     =      30.0000  Ry
     charge density cutoff     =     180.0000  Ry
     scf convergence threshold =      1.0E-07
     mixing beta               =       0.4000
     number of iterations used =            8  plain     mixing
     Exchange-correlation= SLA  PW   PBX  PBC
                           (   1   4   3   4   0   0   0)

     GPU acceleration is ACTIVE.  1 visible GPUs per MPI rank


     celldm(1)=  22.919623  celldm(2)=   0.000000  celldm(3)=   0.000000
     celldm(4)=   0.000000  celldm(5)=   0.000000  celldm(6)=   0.000000

     crystal axes: (cart. coord. in units of alat)
               a(1) = (   1.000000   0.000000   0.000000 )  
               a(2) = (  -0.500000   0.866025   0.000000 )  
               a(3) = (   0.000000   0.000000   1.601650 )  

     reciprocal axes: (cart. coord. in units 2 pi/alat)
               b(1) = (  1.000000  0.577350 -0.000000 )  
               b(2) = (  0.000000  1.154701  0.000000 )  
               b(3) = (  0.000000 -0.000000  0.624356 )  


     PseudoPot. # 1 for C  read from file:
     /root/qe_pseudos/C.UPF
     MD5 check sum: 9b35a7431356f8229172919cb1fa74b8
     Pseudo is Norm-conserving, Zval =  4.0
     Generated by new atomic code, or converted to UPF format
     Using radial grid of 1073 points,  1 beta functions with: 
                l(1) =   0

     PseudoPot. # 2 for O  read from file:
     /root/qe_pseudos/O.UPF
     MD5 check sum: c7f41d994d4e90c1781f5cd713c45011
     Pseudo is Projector augmented-wave + core cor, Zval =  6.0
     Generated using "atomic" code by A. Dal Corso (espresso distribution)
     Shape of augmentation charge: BESSEL
     Using radial grid of 1095 points,  4 beta functions with: 
                l(1) =   0
                l(2) =   0
                l(3) =   1
                l(4) =   1
     Q(r) pseudized with 0 coefficients 


     PseudoPot. # 3 for Ti read from file:
     /root/qe_pseudos/Ti.UPF
     MD5 check sum: 01f69b0d8ba4438b2e03ac6ea4af1c0b
     Pseudo is Projector augmented-wave + core cor, Zval = 12.0
     Generated using &quot;atomic&quot; code by A. Dal Corso  v.6.2.2
     Shape of augmentation charge: PSQ
     Using radial grid of 1177 points,  6 beta functions with: 
                l(1) =   0
                l(2) =   0
                l(3) =   1
                l(4) =   1
                l(5) =   2
                l(6) =   2
     Q(r) pseudized with 0 coefficients 


     PseudoPot. # 4 for Y  read from file:
     /root/qe_pseudos/Y.UPF
     MD5 check sum: d52e8d8ffa9ef5a9f13bb13aaba2e897
     Pseudo is Projector augmented-wave + core cor, Zval = 11.0
     Generated using &quot;atomic&quot; code by A. Dal Corso  v.6.2.2
     Shape of augmentation charge: PSQ
     Using radial grid of 1223 points,  6 beta functions with: 
                l(1) =   0
                l(2) =   0
                l(3) =   1
                l(4) =   1
                l(5) =   2
                l(6) =   2
     Q(r) pseudized with 0 coefficients 


     atomic species   valence    mass     pseudopotential
     C                 4.00    12.01100     C ( 1.00)
     O                 6.00    15.99900     O ( 1.00)
     Ti               12.00    47.86700     Ti( 1.00)
     Y                11.00    88.90580     Y ( 1.00)

     No symmetry found



   Cartesian axes

     site n.     atom                  positions (alat units)
         1        C      tau(   1) = (   0.1249188   0.6499129   0.8017710  )
         2        C      tau(   2) = (   0.2497002   0.4329782   0.8015083  )
         3        C      tau(   3) = (   0.0013343  -0.0001803   0.7965345  )
         4        C      tau(   4) = (   0.3753360   0.2158560   0.8014691  )
         5        C      tau(   5) = (   0.7494872  -0.0014052   0.7995173  )
         6        C      tau(   6) = (   0.3737900   0.6497823   0.7994387  )
         7        C      tau(   7) = (   0.4999722  -0.0009064   0.8013069  )
         8        C      tau(   8) = (  -0.1244642   0.2177356   0.7994139  )
         9        C      tau(   9) = (  -0.1251317   0.6495064   0.8021058  )
        10        C      tau(  10) = (  -0.0000586   0.4328371   0.8019206  )
        11        C      tau(  11) = (   0.6257128   0.2157144   0.8009463  )
        12        C      tau(  12) = (   0.1241309   0.2166367   0.8012095  )
        13        C      tau(  13) = (  -0.2492027   0.4335097   0.8010627  )
        14        C      tau(  14) = (   0.2499194  -0.0008014   0.8014235  )
        15        C      tau(  15) = (  -0.3742097   0.6492817   0.7997662  )
        16        C      tau(  16) = (   0.5001909   0.4335933   0.8009429  )
        17        O      tau(  17) = (  -0.1234682   0.5060488   0.6181766  )
        18        O      tau(  18) = (  -0.1250693   0.7945856   0.9836062  )
        19        O      tau(  19) = (  -0.0007331   0.7204492   0.6189406  )
        20        O      tau(  20) = (   0.5001006   0.7194885   0.6157836  )
        21        O      tau(  21) = (   0.7463851   0.1462507   0.9860471  )
        22        O      tau(  22) = (   0.4999572   0.1445103   0.9837096  )
        23        O      tau(  23) = (   0.6233818   0.0726057   0.6188243  )
        24        O      tau(  24) = (  -0.1251383   0.3601303   0.9840684  )
        25        O      tau(  25) = (   0.1281523   0.0741461   0.6163491  )
        26        O      tau(  26) = (   0.3754952   0.3607461   0.9838949  )
        27        O      tau(  27) = (   0.4998910   0.2883867   0.6197260  )
        28        O      tau(  28) = (   0.2470808   0.7199492   0.6169612  )
        29        O      tau(  29) = (   0.3753654   0.7919149   0.9919057  )
        30        O      tau(  30) = (   0.2508844   0.5774315   0.9838792  )
        31        O      tau(  31) = (   0.3744967   0.5036101   0.6185398  )
        32        O      tau(  32) = (   0.0033997   0.1428541   0.9902424  )
        33        O      tau(  33) = (   0.5000394   0.5748048   0.9847660  )
        34        O      tau(  34) = (   0.8736566   0.0731561   0.6159089  )
        35        O      tau(  35) = (   0.7493030   0.2895528   0.6181769  )
        36        O      tau(  36) = (  -0.3757893   0.7969653   0.9899836  )
        37        O      tau(  37) = (  -0.2470495   0.7213302   0.6175998  )
        38        O      tau(  38) = (  -0.2506540   0.5774672   0.9839436  )
        39        O      tau(  39) = (   0.2505590   0.1441140   0.9837039  )
        40        O      tau(  40) = (   0.3753011   0.0720146   0.6192684  )
        41        O      tau(  41) = (   0.1236323   0.5051283   0.6185349  )
        42        O      tau(  42) = (   0.6244734   0.3606052   0.9830807  )
        43        O      tau(  43) = (   0.1253904   0.3604643   0.9838101  )
        44        O      tau(  44) = (   0.1256118   0.7945312   0.9841906  )
        45        O      tau(  45) = (   0.2499056   0.2888345   0.6194117  )
        46        O      tau(  46) = (   0.0013245   0.2913879   0.6173643  )
        47        O      tau(  47) = (   0.0001666   0.5774413   0.9835165  )
        48        O      tau(  48) = (   0.6253355   0.5039489   0.6179019  )
        49        Ti     tau(  49) = (   0.4982494   0.7222314   0.8944902  )
        50        Ti     tau(  50) = (   0.8755397   0.0704040   0.8929176  )
        51        Ti     tau(  51) = (   0.3749821   0.7945517   0.6954423  )
        52        Ti     tau(  52) = (   0.7505154   0.2869371   0.9080004  )
        53        Ti     tau(  53) = (   0.7502059   0.1444669   0.6926967  )
        54        Ti     tau(  54) = (   0.4998822   0.5784003   0.6935007  )
        55        Ti     tau(  55) = (   0.6242944   0.5063219   0.9073039  )
        56        Ti     tau(  56) = (   0.6246349   0.3613529   0.6929209  )
        57        Ti     tau(  57) = (  -0.0001596   0.1418761   0.6961375  )
        58        Ti     tau(  58) = (   0.1275730   0.7936226   0.7004576  )
        59        Ti     tau(  59) = (   0.1257438   0.0727206   0.9058561  )
        60        Ti     tau(  60) = (  -0.1247682   0.3587514   0.6979521  )
        61        Ti     tau(  61) = (   0.0003479   0.2863292   0.9084459  )
        62        Ti     tau(  62) = (  -0.2503624   0.5778067   0.6959356  )
        63        Ti     tau(  63) = (  -0.1253183   0.5048690   0.9076752  )
        64        Ti     tau(  64) = (  -0.3770250   0.7940274   0.6957541  )
        65        Ti     tau(  65) = (  -0.2508581   0.7229755   0.9079026  )
        66        Ti     tau(  66) = (   0.2494795   0.1441205   0.6922846  )
        67        Ti     tau(  67) = (   0.3745120   0.0718920   0.9059445  )
        68        Ti     tau(  68) = (   0.2530498   0.7245134   0.9089797  )
        69        Ti     tau(  69) = (   0.1228620   0.3610579   0.6936770  )
        70        Ti     tau(  70) = (  -0.0009251   0.5771396   0.6926827  )
        71        Ti     tau(  71) = (   0.1243359   0.5062889   0.9070138  )
        72        Ti     tau(  72) = (  -0.1251728   0.7929794   0.6932917  )
        73        Ti     tau(  73) = (   0.0001135   0.7217934   0.9063679  )
        74        Ti     tau(  74) = (   0.6268374   0.0736395   0.9104792  )
        75        Ti     tau(  75) = (   0.3744465   0.3616613   0.6943623  )
        76        Ti     tau(  76) = (   0.4997562   0.2888820   0.9100555  )
        77        Ti     tau(  77) = (   0.2507614   0.5794139   0.6962552  )
        78        Ti     tau(  78) = (   0.3755897   0.5060977   0.9092215  )
        79        Ti     tau(  79) = (   0.2488962   0.2897206   0.9068658  )
        80        Ti     tau(  80) = (   0.5009897   0.1436925   0.6945257  )
        81        Y      tau(  81) = (  -0.0018226  -0.0004779   1.1289756  )

     number of k points=     1  Methfessel-Paxton smearing, width (Ry)=  0.0100
                       cart. coord. in units 2pi/alat
        k(    1) = (   0.0000000   0.0000000   0.0000000), wk =   2.0000000

     Dense  grid:   681217 G-vectors     FFT dimensions: ( 100, 100, 160)

     Smooth grid:   370707 G-vectors     FFT dimensions: (  80,  80, 135)

     Estimated max dynamical RAM per process >       4.16 GB

     Check: negative core charge=   -0.000044

     Initial potential from superposition of free atoms

     starting charge     642.9489, renormalised to     651.0000

     negative rho (up, down):  4.203E-02 0.000E+00
     Starting wfcs are  589 randomized atomic wfcs
     Checking if some PAW data can be deallocated... 

     total cpu time spent up to now is       27.2 secs

     Self-consistent Calculation

     iteration #  1     ecut=    30.00 Ry     beta= 0.40
     Davidson diagonalization with overlap
     ethr =  1.00E-02,  avg # of iterations =  3.0

     negative rho (up, down):  3.811E-02 0.000E+00

     total cpu time spent up to now is       47.4 secs

     total energy              =   -7663.72467066 Ry
     estimated scf accuracy    <      56.11037328 Ry

     iteration #  2     ecut=    30.00 Ry     beta= 0.40
     Davidson diagonalization with overlap
     ethr =  8.62E-03,  avg # of iterations =  5.0

     negative rho (up, down):  5.637E-02 0.000E+00

     total cpu time spent up to now is       67.8 secs

     total energy              =   -7670.39272851 Ry
     estimated scf accuracy    <      35.41316295 Ry

     iteration #  3     ecut=    30.00 Ry     beta= 0.40
     Davidson diagonalization with overlap
     ethr =  5.44E-03,  avg # of iterations =  6.0

     negative rho (up, down):  1.243E-01 0.000E+00

     total cpu time spent up to now is       88.2 secs

     total energy              =   -7664.63532549 Ry
     estimated scf accuracy    <     277.14960007 Ry

     iteration #  4     ecut=    30.00 Ry     beta= 0.40
     Davidson diagonalization with overlap
     ethr =  5.44E-03,  avg # of iterations =  2.0

     negative rho (up, down):  9.409E-02 0.000E+00

     total cpu time spent up to now is      107.9 secs

     total energy              =   -7679.54237241 Ry
     estimated scf accuracy    <       5.22460706 Ry

     iteration #  5     ecut=    30.00 Ry     beta= 0.40
     Davidson diagonalization with overlap
     ethr =  8.03E-04,  avg # of iterations =  8.0

     negative rho (up, down):  1.093E-01 0.000E+00

     total cpu time spent up to now is      128.4 secs

     total energy              =   -7679.74801125 Ry
     estimated scf accuracy    <       3.82224048 Ry

     iteration #  6     ecut=    30.00 Ry     beta= 0.40
     Davidson diagonalization with overlap
     ethr =  5.87E-04,  avg # of iterations =  2.0

     negative rho (up, down):  1.277E-01 0.000E+00

     total cpu time spent up to now is      148.1 secs

     total energy              =   -7679.88491182 Ry
     estimated scf accuracy    <       1.20129674 Ry

     iteration #  7     ecut=    30.00 Ry     beta= 0.40
     Davidson diagonalization with overlap
     ethr =  1.85E-04,  avg # of iterations =  5.0

     negative rho (up, down):  1.538E-01 0.000E+00

     total cpu time spent up to now is      168.2 secs

     total energy              =   -7679.88080451 Ry
     estimated scf accuracy    <       0.50537852 Ry

     iteration #  8     ecut=    30.00 Ry     beta= 0.40
     Davidson diagonalization with overlap
     ethr =  7.76E-05,  avg # of iterations = 14.0

     negative rho (up, down):  2.058E-01 0.000E+00

     total cpu time spent up to now is      189.5 secs

     total energy              =   -7679.93784851 Ry
     estimated scf accuracy    <       0.55158643 Ry

     iteration #  9     ecut=    30.00 Ry     beta= 0.40
     Davidson diagonalization with overlap
     ethr =  7.76E-05,  avg # of iterations = 10.0

     negative rho (up, down):  2.653E-01 0.000E+00

     total cpu time spent up to now is      209.7 secs

     total energy              =   -7679.95655830 Ry
     estimated scf accuracy    <       0.24900096 Ry

     iteration # 10     ecut=    30.00 Ry     beta= 0.40
     Davidson diagonalization with overlap
     c_bands:  1 eigenvalues not converged
     ethr =  3.82E-05,  avg # of iterations = 20.0

     negative rho (up, down):  3.320E-01 0.000E+00

     total cpu time spent up to now is      230.6 secs

     total energy              =   -7679.96442756 Ry
     estimated scf accuracy    <       0.13236981 Ry

     iteration # 11     ecut=    30.00 Ry     beta= 0.40
     Davidson diagonalization with overlap
     ethr =  2.03E-05,  avg # of iterations = 15.0

     negative rho (up, down):  4.013E-01 0.000E+00

     total cpu time spent up to now is      251.3 secs

     total energy              =   -7679.97755266 Ry
     estimated scf accuracy    <       0.05872189 Ry

     iteration # 12     ecut=    30.00 Ry     beta= 0.40
     Davidson diagonalization with overlap
     ethr =  9.02E-06,  avg # of iterations =  9.0

     negative rho (up, down):  4.659E-01 0.000E+00

     total cpu time spent up to now is      271.9 secs

     total energy              =   -7679.98545658 Ry
     estimated scf accuracy    <       0.02712843 Ry

     iteration # 13     ecut=    30.00 Ry     beta= 0.40
     Davidson diagonalization with overlap
     c_bands:  5 eigenvalues not converged
     ethr =  4.17E-06,  avg # of iterations = 20.0

     negative rho (up, down):  5.675E-01 0.000E+00

     total cpu time spent up to now is      293.0 secs

     total energy              =   -7679.98643060 Ry
     estimated scf accuracy    <       0.11346673 Ry

     iteration # 14     ecut=    30.00 Ry     beta= 0.40
     Davidson diagonalization with overlap
     c_bands:  1 eigenvalues not converged
     ethr =  4.17E-06,  avg # of iterations = 20.0

     negative rho (up, down):  6.208E-01 0.000E+00

     total cpu time spent up to now is      314.8 secs

     total energy              =   -7679.99225779 Ry
     estimated scf accuracy    <       0.15165755 Ry

     iteration # 15     ecut=    30.00 Ry     beta= 0.40
     Davidson diagonalization with overlap
     ethr =  4.17E-06,  avg # of iterations =  2.0

     negative rho (up, down):  7.076E-01 0.000E+00

     total cpu time spent up to now is      334.6 secs

     total energy              =   -7679.98739955 Ry
     estimated scf accuracy    <       0.15616883 Ry

     iteration # 16     ecut=    30.00 Ry     beta= 0.40
     Davidson diagonalization with overlap
     ethr =  4.17E-06,  avg # of iterations =  2.0

     negative rho (up, down):  7.828E-01 0.000E+00

     total cpu time spent up to now is      354.5 secs

     total energy              =   -7679.98710946 Ry
     estimated scf accuracy    <       0.09861721 Ry

     iteration # 17     ecut=    30.00 Ry     beta= 0.40
     Davidson diagonalization with overlap
     ethr =  4.17E-06,  avg # of iterations =  2.0

     negative rho (up, down):  8.664E-01 0.000E+00

     total cpu time spent up to now is      374.2 secs

     total energy              =   -7679.98116686 Ry
     estimated scf accuracy    <       0.11167058 Ry

     iteration # 18     ecut=    30.00 Ry     beta= 0.40
     Davidson diagonalization with overlap
     ethr =  4.17E-06,  avg # of iterations =  2.0

     negative rho (up, down):  9.491E-01 0.000E+00

     total cpu time spent up to now is      394.1 secs

     total energy              =   -7679.97401652 Ry
     estimated scf accuracy    <       0.17191061 Ry

     iteration # 19     ecut=    30.00 Ry     beta= 0.40
     Davidson diagonalization with overlap
     ethr =  4.17E-06,  avg # of iterations =  2.0

     negative rho (up, down):  9.261E-01 0.000E+00

     total cpu time spent up to now is      413.9 secs

     total energy              =   -7679.98988827 Ry
     estimated scf accuracy    <       0.29132048 Ry

     iteration # 20     ecut=    30.00 Ry     beta= 0.40
     Davidson diagonalization with overlap
     ethr =  4.17E-06,  avg # of iterations =  2.0

     negative rho (up, down):  1.086E+00 0.000E+00

     total cpu time spent up to now is      433.6 secs

     total energy              =   -7679.95766365 Ry
     estimated scf accuracy    <       0.08571178 Ry

     iteration # 21     ecut=    30.00 Ry     beta= 0.40
     Davidson diagonalization with overlap
     c_bands:  1 eigenvalues not converged
     ethr =  4.17E-06,  avg # of iterations = 20.0

     negative rho (up, down):  1.132E+00 0.000E+00

     total cpu time spent up to now is      454.2 secs

     total energy              =   -7679.96188618 Ry
     estimated scf accuracy    <       0.50443942 Ry

     iteration # 22     ecut=    30.00 Ry     beta= 0.40
     Davidson diagonalization with overlap
     ethr =  4.17E-06,  avg # of iterations =  2.0

     negative rho (up, down):  1.171E+00 0.000E+00

     total cpu time spent up to now is      474.0 secs

     total energy              =   -7679.95962511 Ry
     estimated scf accuracy    <       0.54842034 Ry

     iteration # 23     ecut=    30.00 Ry     beta= 0.40
     Davidson diagonalization with overlap
     ethr =  4.17E-06,  avg # of iterations =  5.0

     negative rho (up, down):  1.142E+00 0.000E+00

     total cpu time spent up to now is      494.0 secs

     total energy              =   -7679.96972185 Ry
     estimated scf accuracy    <       0.69833124 Ry

     iteration # 24     ecut=    30.00 Ry     beta= 0.40
     Davidson diagonalization with overlap
     ethr =  4.17E-06,  avg # of iterations =  3.0

     negative rho (up, down):  1.094E+00 0.000E+00

     total cpu time spent up to now is      513.8 secs

     total energy              =   -7679.99245791 Ry
     estimated scf accuracy    <       0.44434207 Ry

     iteration # 25     ecut=    30.00 Ry     beta= 0.40
     Davidson diagonalization with overlap
     ethr =  4.17E-06,  avg # of iterations =  2.0

     negative rho (up, down):  1.055E+00 0.000E+00

     total cpu time spent up to now is      533.6 secs

     total energy              =   -7680.01317102 Ry
     estimated scf accuracy    <       0.25226718 Ry

     iteration # 26     ecut=    30.00 Ry     beta= 0.40
     Davidson diagonalization with overlap
     c_bands:  1 eigenvalues not converged
     ethr =  4.17E-06,  avg # of iterations = 20.0

     negative rho (up, down):  1.059E+00 0.000E+00

     total cpu time spent up to now is      555.2 secs

     total energy              =   -7680.02512867 Ry
     estimated scf accuracy    <       0.06148588 Ry

     iteration # 27     ecut=    30.00 Ry     beta= 0.40
     Davidson diagonalization with overlap
     c_bands:  1 eigenvalues not converged
     ethr =  4.17E-06,  avg # of iterations = 20.0

     negative rho (up, down):  1.100E+00 0.000E+00

     total cpu time spent up to now is      576.7 secs

     total energy              =   -7680.02460178 Ry
     estimated scf accuracy    <       0.01665879 Ry

     iteration # 28     ecut=    30.00 Ry     beta= 0.40
     Davidson diagonalization with overlap
     c_bands:  1 eigenvalues not converged
     ethr =  2.56E-06,  avg # of iterations = 20.0

     negative rho (up, down):  1.121E+00 0.000E+00

     total cpu time spent up to now is      598.2 secs

     total energy              =   -7680.02752074 Ry
     estimated scf accuracy    <       0.00429407 Ry

     iteration # 29     ecut=    30.00 Ry     beta= 0.40
     Davidson diagonalization with overlap
     c_bands:  1 eigenvalues not converged
     ethr =  6.60E-07,  avg # of iterations = 20.0

     negative rho (up, down):  1.147E+00 0.000E+00

     total cpu time spent up to now is      619.8 secs

     total energy              =   -7680.02838336 Ry
     estimated scf accuracy    <       0.00758377 Ry

     iteration # 30     ecut=    30.00 Ry     beta= 0.40
     Davidson diagonalization with overlap
     ethr =  6.60E-07,  avg # of iterations = 12.0

     negative rho (up, down):  1.170E+00 0.000E+00

     total cpu time spent up to now is      640.6 secs

     total energy              =   -7680.02889237 Ry
     estimated scf accuracy    <       0.00568066 Ry

     iteration # 31     ecut=    30.00 Ry     beta= 0.40
     Davidson diagonalization with overlap
     ethr =  6.60E-07,  avg # of iterations =  2.0

     negative rho (up, down):  1.191E+00 0.000E+00

     total cpu time spent up to now is      660.5 secs

     total energy              =   -7680.02925983 Ry
     estimated scf accuracy    <       0.00457727 Ry

     iteration # 32     ecut=    30.00 Ry     beta= 0.40
     Davidson diagonalization with overlap
     ethr =  6.60E-07,  avg # of iterations =  2.0

     negative rho (up, down):  1.210E+00 0.000E+00

     total cpu time spent up to now is      680.5 secs

     total energy              =   -7680.02911165 Ry
     estimated scf accuracy    <       0.00545665 Ry

     iteration # 33     ecut=    30.00 Ry     beta= 0.40
     Davidson diagonalization with overlap
     ethr =  6.60E-07,  avg # of iterations =  2.0

     negative rho (up, down):  1.228E+00 0.000E+00

     total cpu time spent up to now is      700.3 secs

     total energy              =   -7680.02842169 Ry
     estimated scf accuracy    <       0.00828065 Ry

     iteration # 34     ecut=    30.00 Ry     beta= 0.40
     Davidson diagonalization with overlap
     ethr =  6.60E-07,  avg # of iterations =  2.0

     negative rho (up, down):  1.245E+00 0.000E+00

     total cpu time spent up to now is      720.2 secs

     total energy              =   -7680.02717182 Ry
     estimated scf accuracy    <       0.00997662 Ry

     iteration # 35     ecut=    30.00 Ry     beta= 0.40
     Davidson diagonalization with overlap
     ethr =  6.60E-07,  avg # of iterations =  2.0

     negative rho (up, down):  1.258E+00 0.000E+00

     total cpu time spent up to now is      740.1 secs

     total energy              =   -7680.02735508 Ry
     estimated scf accuracy    <       0.01139989 Ry

     iteration # 36     ecut=    30.00 Ry     beta= 0.40
     Davidson diagonalization with overlap
     ethr =  6.60E-07,  avg # of iterations =  2.0

     negative rho (up, down):  1.273E+00 0.000E+00

     total cpu time spent up to now is      759.8 secs

     total energy              =   -7680.02634102 Ry
     estimated scf accuracy    <       0.01059683 Ry

     iteration # 37     ecut=    30.00 Ry     beta= 0.40
     Davidson diagonalization with overlap
     ethr =  6.60E-07,  avg # of iterations =  2.0

     negative rho (up, down):  1.287E+00 0.000E+00

     total cpu time spent up to now is      779.5 secs

     total energy              =   -7680.02467222 Ry
     estimated scf accuracy    <       0.01249706 Ry

     iteration # 38     ecut=    30.00 Ry     beta= 0.40
     Davidson diagonalization with overlap
     ethr =  6.60E-07,  avg # of iterations =  2.0

     negative rho (up, down):  1.299E+00 0.000E+00

     total cpu time spent up to now is      799.2 secs

     total energy              =   -7680.02320922 Ry
     estimated scf accuracy    <       0.01616839 Ry

     iteration # 39     ecut=    30.00 Ry     beta= 0.40
     Davidson diagonalization with overlap
     ethr =  6.60E-07,  avg # of iterations =  2.0

     negative rho (up, down):  1.311E+00 0.000E+00

     total cpu time spent up to now is      819.0 secs

     total energy              =   -7680.02162340 Ry
     estimated scf accuracy    <       0.01923816 Ry

     iteration # 40     ecut=    30.00 Ry     beta= 0.40
     Davidson diagonalization with overlap
     ethr =  6.60E-07,  avg # of iterations =  2.0

     negative rho (up, down):  1.322E+00 0.000E+00

     total cpu time spent up to now is      839.0 secs

     total energy              =   -7680.01995071 Ry
     estimated scf accuracy    <       0.02157256 Ry

     iteration # 41     ecut=    30.00 Ry     beta= 0.40
     Davidson diagonalization with overlap
     ethr =  6.60E-07,  avg # of iterations =  2.0

     negative rho (up, down):  1.332E+00 0.000E+00

     total cpu time spent up to now is      858.8 secs

     total energy              =   -7680.01905476 Ry
     estimated scf accuracy    <       0.02462071 Ry

     iteration # 42     ecut=    30.00 Ry     beta= 0.40
     Davidson diagonalization with overlap
     ethr =  6.60E-07,  avg # of iterations =  2.0

     negative rho (up, down):  1.332E+00 0.000E+00

     total cpu time spent up to now is      878.7 secs

     total energy              =   -7680.02012898 Ry
     estimated scf accuracy    <       0.02555373 Ry

     iteration # 43     ecut=    30.00 Ry     beta= 0.40
     Davidson diagonalization with overlap
     ethr =  6.60E-07,  avg # of iterations =  2.0

     negative rho (up, down):  1.340E+00 0.000E+00

     total cpu time spent up to now is      898.8 secs

     total energy              =   -7680.01835440 Ry
     estimated scf accuracy    <       0.02218393 Ry

     iteration # 44     ecut=    30.00 Ry     beta= 0.40
     Davidson diagonalization with overlap
     ethr =  6.60E-07,  avg # of iterations =  2.0

     negative rho (up, down):  1.347E+00 0.000E+00

     total cpu time spent up to now is      918.4 secs

     total energy              =   -7680.01713982 Ry
     estimated scf accuracy    <       0.02801581 Ry

     iteration # 45     ecut=    30.00 Ry     beta= 0.40
     Davidson diagonalization with overlap
     ethr =  6.60E-07,  avg # of iterations =  2.0

     negative rho (up, down):  1.349E+00 0.000E+00

     total cpu time spent up to now is      938.2 secs

     total energy              =   -7680.01721953 Ry
     estimated scf accuracy    <       0.02929814 Ry

     iteration # 46     ecut=    30.00 Ry     beta= 0.40
     Davidson diagonalization with overlap
     ethr =  6.60E-07,  avg # of iterations =  2.0

     negative rho (up, down):  1.336E+00 0.000E+00

     total cpu time spent up to now is      958.1 secs

     total energy              =   -7680.02235950 Ry
     estimated scf accuracy    <       0.02730996 Ry

     iteration # 47     ecut=    30.00 Ry     beta= 0.40
     Davidson diagonalization with overlap
     ethr =  6.60E-07,  avg # of iterations =  2.0

     negative rho (up, down):  1.339E+00 0.000E+00

     total cpu time spent up to now is      977.8 secs

     total energy              =   -7680.02232114 Ry
     estimated scf accuracy    <       0.01091252 Ry

     iteration # 48     ecut=    30.00 Ry     beta= 0.40
     Davidson diagonalization with overlap
     ethr =  6.60E-07,  avg # of iterations =  1.0

     negative rho (up, down):  1.328E+00 0.000E+00

     total cpu time spent up to now is      997.4 secs

     total energy              =   -7680.02569331 Ry
     estimated scf accuracy    <       0.01432313 Ry

     iteration # 49     ecut=    30.00 Ry     beta= 0.40
     Davidson diagonalization with overlap
     ethr =  6.60E-07,  avg # of iterations =  5.0

     negative rho (up, down):  1.325E+00 0.000E+00

     total cpu time spent up to now is     1017.3 secs

     total energy              =   -7680.02939609 Ry
     estimated scf accuracy    <       0.01375129 Ry

     iteration # 50     ecut=    30.00 Ry     beta= 0.40
     Davidson diagonalization with overlap
     ethr =  6.60E-07,  avg # of iterations =  5.0

     negative rho (up, down):  1.328E+00 0.000E+00

     total cpu time spent up to now is     1037.4 secs

     total energy              =   -7680.03104271 Ry
     estimated scf accuracy    <       0.00629474 Ry

     iteration # 51     ecut=    30.00 Ry     beta= 0.40
     Davidson diagonalization with overlap
     ethr =  6.60E-07,  avg # of iterations =  1.0

     negative rho (up, down):  1.330E+00 0.000E+00

     total cpu time spent up to now is     1056.9 secs

     total energy              =   -7680.03228833 Ry
     estimated scf accuracy    <       0.00472355 Ry

     iteration # 52     ecut=    30.00 Ry     beta= 0.40
     Davidson diagonalization with overlap
     ethr =  6.60E-07,  avg # of iterations =  1.0

     negative rho (up, down):  1.335E+00 0.000E+00

     total cpu time spent up to now is     1076.5 secs

     total energy              =   -7680.03232840 Ry
     estimated scf accuracy    <       0.00153319 Ry

     iteration # 53     ecut=    30.00 Ry     beta= 0.40
     Davidson diagonalization with overlap
     ethr =  2.36E-07,  avg # of iterations =  2.0

     negative rho (up, down):  1.338E+00 0.000E+00

     total cpu time spent up to now is     1096.3 secs

     total energy              =   -7680.03242855 Ry
     estimated scf accuracy    <       0.00020643 Ry

     iteration # 54     ecut=    30.00 Ry     beta= 0.40
     Davidson diagonalization with overlap
     ethr =  3.17E-08,  avg # of iterations =  5.0

     negative rho (up, down):  1.341E+00 0.000E+00

     total cpu time spent up to now is     1116.2 secs

     total energy              =   -7680.03256647 Ry
     estimated scf accuracy    <       0.00016302 Ry

     iteration # 55     ecut=    30.00 Ry     beta= 0.40
     Davidson diagonalization with overlap
     ethr =  2.50E-08,  avg # of iterations =  2.0

     negative rho (up, down):  1.344E+00 0.000E+00

     total cpu time spent up to now is     1136.1 secs

     total energy              =   -7680.03256595 Ry
     estimated scf accuracy    <       0.00009591 Ry

     iteration # 56     ecut=    30.00 Ry     beta= 0.40
     Davidson diagonalization with overlap
     ethr =  1.47E-08,  avg # of iterations =  3.0

     negative rho (up, down):  1.346E+00 0.000E+00

     total cpu time spent up to now is     1156.0 secs

     total energy              =   -7680.03260449 Ry
     estimated scf accuracy    <       0.00007672 Ry

     iteration # 57     ecut=    30.00 Ry     beta= 0.40
     Davidson diagonalization with overlap
     ethr =  1.18E-08,  avg # of iterations =  2.0

     negative rho (up, down):  1.348E+00 0.000E+00

     total cpu time spent up to now is     1175.8 secs

     total energy              =   -7680.03262968 Ry
     estimated scf accuracy    <       0.00002470 Ry

     iteration # 58     ecut=    30.00 Ry     beta= 0.40
     Davidson diagonalization with overlap
     ethr =  3.79E-09,  avg # of iterations =  2.0

     negative rho (up, down):  1.350E+00 0.000E+00

     total cpu time spent up to now is     1195.8 secs

     total energy              =   -7680.03264277 Ry
     estimated scf accuracy    <       0.00003481 Ry

     iteration # 59     ecut=    30.00 Ry     beta= 0.40
     Davidson diagonalization with overlap
     ethr =  3.79E-09,  avg # of iterations =  2.0

     negative rho (up, down):  1.352E+00 0.000E+00

     total cpu time spent up to now is     1215.7 secs

     total energy              =   -7680.03265356 Ry
     estimated scf accuracy    <       0.00003276 Ry

     iteration # 60     ecut=    30.00 Ry     beta= 0.40
     Davidson diagonalization with overlap
     ethr =  3.79E-09,  avg # of iterations =  2.0

     negative rho (up, down):  1.353E+00 0.000E+00

     total cpu time spent up to now is     1235.5 secs

     total energy              =   -7680.03265307 Ry
     estimated scf accuracy    <       0.00002845 Ry

     iteration # 61     ecut=    30.00 Ry     beta= 0.40
     Davidson diagonalization with overlap
     ethr =  3.79E-09,  avg # of iterations =  2.0

     negative rho (up, down):  1.354E+00 0.000E+00

     total cpu time spent up to now is     1255.4 secs

     total energy              =   -7680.03262818 Ry
     estimated scf accuracy    <       0.00004216 Ry

     iteration # 62     ecut=    30.00 Ry     beta= 0.40
     Davidson diagonalization with overlap
     ethr =  3.79E-09,  avg # of iterations =  2.0

     negative rho (up, down):  1.356E+00 0.000E+00

     total cpu time spent up to now is     1275.2 secs

     total energy              =   -7680.03248688 Ry
     estimated scf accuracy    <       0.00005134 Ry

     iteration # 63     ecut=    30.00 Ry     beta= 0.40
     Davidson diagonalization with overlap
     ethr =  3.79E-09,  avg # of iterations =  2.0

     negative rho (up, down):  1.357E+00 0.000E+00

     total cpu time spent up to now is     1295.1 secs

     total energy              =   -7680.03242963 Ry
     estimated scf accuracy    <       0.00026497 Ry

     iteration # 64     ecut=    30.00 Ry     beta= 0.40
     Davidson diagonalization with overlap
     ethr =  3.79E-09,  avg # of iterations =  2.0

     negative rho (up, down):  1.358E+00 0.000E+00

     total cpu time spent up to now is     1315.0 secs

     total energy              =   -7680.03234169 Ry
     estimated scf accuracy    <       0.00031973 Ry

     iteration # 65     ecut=    30.00 Ry     beta= 0.40
     Davidson diagonalization with overlap
     ethr =  3.79E-09,  avg # of iterations =  2.0

     negative rho (up, down):  1.358E+00 0.000E+00

     total cpu time spent up to now is     1334.9 secs

     total energy              =   -7680.03250831 Ry
     estimated scf accuracy    <       0.00038588 Ry

     iteration # 66     ecut=    30.00 Ry     beta= 0.40
     Davidson diagonalization with overlap
     ethr =  3.79E-09,  avg # of iterations =  2.0

     negative rho (up, down):  1.359E+00 0.000E+00

     total cpu time spent up to now is     1354.8 secs

     total energy              =   -7680.03247021 Ry
     estimated scf accuracy    <       0.00016635 Ry

     iteration # 67     ecut=    30.00 Ry     beta= 0.40
     Davidson diagonalization with overlap
     ethr =  3.79E-09,  avg # of iterations =  2.0

     negative rho (up, down):  1.359E+00 0.000E+00

     total cpu time spent up to now is     1374.7 secs

     total energy              =   -7680.03246271 Ry
     estimated scf accuracy    <       0.00022381 Ry

     iteration # 68     ecut=    30.00 Ry     beta= 0.40
     Davidson diagonalization with overlap
     ethr =  3.79E-09,  avg # of iterations =  2.0

     negative rho (up, down):  1.360E+00 0.000E+00

     total cpu time spent up to now is     1394.7 secs

     total energy              =   -7680.03245987 Ry
     estimated scf accuracy    <       0.00022595 Ry

     iteration # 69     ecut=    30.00 Ry     beta= 0.40
     Davidson diagonalization with overlap
     ethr =  3.79E-09,  avg # of iterations =  2.0

     negative rho (up, down):  1.360E+00 0.000E+00

     total cpu time spent up to now is     1414.5 secs

     total energy              =   -7680.03243472 Ry
     estimated scf accuracy    <       0.00023290 Ry

     iteration # 70     ecut=    30.00 Ry     beta= 0.40
     Davidson diagonalization with overlap
     ethr =  3.79E-09,  avg # of iterations =  2.0

     negative rho (up, down):  1.361E+00 0.000E+00

     total cpu time spent up to now is     1434.4 secs

     total energy              =   -7680.03233627 Ry
     estimated scf accuracy    <       0.00025266 Ry

     iteration # 71     ecut=    30.00 Ry     beta= 0.40
     Davidson diagonalization with overlap
     ethr =  3.79E-09,  avg # of iterations =  2.0

     negative rho (up, down):  1.362E+00 0.000E+00

     total cpu time spent up to now is     1454.4 secs

     total energy              =   -7680.03225157 Ry
     estimated scf accuracy    <       0.00031008 Ry

     iteration # 72     ecut=    30.00 Ry     beta= 0.40
     Davidson diagonalization with overlap
     ethr =  3.79E-09,  avg # of iterations =  2.0

     negative rho (up, down):  1.362E+00 0.000E+00

     total cpu time spent up to now is     1474.4 secs

     total energy              =   -7680.03227315 Ry
     estimated scf accuracy    <       0.00035860 Ry

     iteration # 73     ecut=    30.00 Ry     beta= 0.40
     Davidson diagonalization with overlap
     ethr =  3.79E-09,  avg # of iterations =  2.0

     negative rho (up, down):  1.362E+00 0.000E+00

     total cpu time spent up to now is     1494.1 secs

     total energy              =   -7680.03231730 Ry
     estimated scf accuracy    <       0.00028978 Ry

     iteration # 74     ecut=    30.00 Ry     beta= 0.40
     Davidson diagonalization with overlap
     ethr =  3.79E-09,  avg # of iterations =  2.0

     negative rho (up, down):  1.362E+00 0.000E+00

     total cpu time spent up to now is     1514.0 secs

     total energy              =   -7680.03221416 Ry
     estimated scf accuracy    <       0.00029887 Ry

     iteration # 75     ecut=    30.00 Ry     beta= 0.40
     Davidson diagonalization with overlap
     ethr =  3.79E-09,  avg # of iterations =  2.0

     negative rho (up, down):  1.363E+00 0.000E+00

     total cpu time spent up to now is     1533.7 secs

     total energy              =   -7680.03212305 Ry
     estimated scf accuracy    <       0.00035232 Ry

     iteration # 76     ecut=    30.00 Ry     beta= 0.40
     Davidson diagonalization with overlap
     ethr =  3.79E-09,  avg # of iterations =  2.0

     negative rho (up, down):  1.363E+00 0.000E+00

     total cpu time spent up to now is     1553.5 secs

     total energy              =   -7680.03213972 Ry
     estimated scf accuracy    <       0.00035128 Ry

     iteration # 77     ecut=    30.00 Ry     beta= 0.40
     Davidson diagonalization with overlap
     ethr =  3.79E-09,  avg # of iterations =  2.0

     negative rho (up, down):  1.363E+00 0.000E+00

     total cpu time spent up to now is     1573.4 secs

     total energy              =   -7680.03205386 Ry
     estimated scf accuracy    <       0.00039893 Ry

     iteration # 78     ecut=    30.00 Ry     beta= 0.40
     Davidson diagonalization with overlap
     ethr =  3.79E-09,  avg # of iterations =  2.0

     negative rho (up, down):  1.364E+00 0.000E+00

     total cpu time spent up to now is     1593.3 secs

     total energy              =   -7680.03183262 Ry
     estimated scf accuracy    <       0.00040414 Ry

     iteration # 79     ecut=    30.00 Ry     beta= 0.40
     Davidson diagonalization with overlap
     ethr =  3.79E-09,  avg # of iterations =  2.0

     negative rho (up, down):  1.365E+00 0.000E+00

     total cpu time spent up to now is     1613.2 secs

     total energy              =   -7680.03155217 Ry
     estimated scf accuracy    <       0.00052222 Ry

     iteration # 80     ecut=    30.00 Ry     beta= 0.40
     Davidson diagonalization with overlap
     ethr =  3.79E-09,  avg # of iterations =  5.0

     negative rho (up, down):  1.364E+00 0.000E+00

     total cpu time spent up to now is     1633.4 secs

     total energy              =   -7680.03203734 Ry
     estimated scf accuracy    <       0.00065682 Ry

     iteration # 81     ecut=    30.00 Ry     beta= 0.40
     Davidson diagonalization with overlap
     ethr =  3.79E-09,  avg # of iterations =  6.0

     negative rho (up, down):  1.365E+00 0.000E+00

     total cpu time spent up to now is     1653.8 secs

     total energy              =   -7680.03150849 Ry
     estimated scf accuracy    <       0.00045017 Ry

     iteration # 82     ecut=    30.00 Ry     beta= 0.40
     Davidson diagonalization with overlap
     ethr =  3.79E-09,  avg # of iterations =  6.0

     negative rho (up, down):  1.364E+00 0.000E+00

     total cpu time spent up to now is     1674.2 secs

     total energy              =   -7680.03211200 Ry
     estimated scf accuracy    <       0.00065461 Ry

     iteration # 83     ecut=    30.00 Ry     beta= 0.40
     Davidson diagonalization with overlap
     ethr =  3.79E-09,  avg # of iterations =  5.0

     negative rho (up, down):  1.364E+00 0.000E+00

     total cpu time spent up to now is     1694.2 secs

     total energy              =   -7680.03213391 Ry
     estimated scf accuracy    <       0.00036960 Ry

     iteration # 84     ecut=    30.00 Ry     beta= 0.40
     Davidson diagonalization with overlap
     ethr =  3.79E-09,  avg # of iterations =  5.0

     negative rho (up, down):  1.363E+00 0.000E+00

     total cpu time spent up to now is     1714.3 secs

     total energy              =   -7680.03251451 Ry
     estimated scf accuracy    <       0.00041492 Ry

     iteration # 85     ecut=    30.00 Ry     beta= 0.40
     Davidson diagonalization with overlap
     ethr =  3.79E-09,  avg # of iterations =  6.0

     negative rho (up, down):  1.363E+00 0.000E+00

     total cpu time spent up to now is     1734.6 secs

     total energy              =   -7680.03242066 Ry
     estimated scf accuracy    <       0.00076975 Ry

     iteration # 86     ecut=    30.00 Ry     beta= 0.40
     Davidson diagonalization with overlap
     ethr =  3.79E-09,  avg # of iterations =  6.0

     negative rho (up, down):  1.364E+00 0.000E+00

     total cpu time spent up to now is     1754.7 secs

     total energy              =   -7680.03239647 Ry
     estimated scf accuracy    <       0.00025758 Ry

     iteration # 87     ecut=    30.00 Ry     beta= 0.40
     Davidson diagonalization with overlap
     ethr =  3.79E-09,  avg # of iterations =  2.0

     negative rho (up, down):  1.363E+00 0.000E+00

     total cpu time spent up to now is     1774.5 secs

     total energy              =   -7680.03218245 Ry
     estimated scf accuracy    <       0.00027388 Ry

     iteration # 88     ecut=    30.00 Ry     beta= 0.40
     Davidson diagonalization with overlap
     ethr =  3.79E-09,  avg # of iterations =  8.0

     negative rho (up, down):  1.362E+00 0.000E+00

     total cpu time spent up to now is     1795.8 secs

     total energy              =   -7680.03283754 Ry
     estimated scf accuracy    <       0.00115574 Ry

     iteration # 89     ecut=    30.00 Ry     beta= 0.40
     Davidson diagonalization with overlap
     ethr =  3.79E-09,  avg # of iterations =  6.0

     negative rho (up, down):  1.363E+00 0.000E+00

     total cpu time spent up to now is     1816.4 secs

     total energy              =   -7680.03287812 Ry
     estimated scf accuracy    <       0.00004005 Ry

     iteration # 90     ecut=    30.00 Ry     beta= 0.40
     Davidson diagonalization with overlap
     ethr =  3.79E-09,  avg # of iterations =  5.0

     negative rho (up, down):  1.363E+00 0.000E+00

     total cpu time spent up to now is     1836.5 secs

     total energy              =   -7680.03288230 Ry
     estimated scf accuracy    <       0.00002188 Ry

     iteration # 91     ecut=    30.00 Ry     beta= 0.40
     Davidson diagonalization with overlap
     ethr =  3.36E-09,  avg # of iterations =  2.0

     negative rho (up, down):  1.363E+00 0.000E+00

     total cpu time spent up to now is     1856.2 secs

     total energy              =   -7680.03290107 Ry
     estimated scf accuracy    <       0.00001813 Ry

     iteration # 92     ecut=    30.00 Ry     beta= 0.40
     Davidson diagonalization with overlap
     ethr =  2.78E-09,  avg # of iterations =  2.0

     negative rho (up, down):  1.363E+00 0.000E+00

     total cpu time spent up to now is     1876.1 secs

     total energy              =   -7680.03291397 Ry
     estimated scf accuracy    <       0.00001039 Ry

     iteration # 93     ecut=    30.00 Ry     beta= 0.40
     Davidson diagonalization with overlap
     ethr =  1.60E-09,  avg # of iterations =  2.0

     negative rho (up, down):  1.363E+00 0.000E+00

     total cpu time spent up to now is     1895.8 secs

     total energy              =   -7680.03290681 Ry
     estimated scf accuracy    <       0.00000216 Ry

     iteration # 94     ecut=    30.00 Ry     beta= 0.40
     Davidson diagonalization with overlap
     ethr =  3.31E-10,  avg # of iterations =  5.0

     negative rho (up, down):  1.363E+00 0.000E+00

     total cpu time spent up to now is     1915.8 secs

     total energy              =   -7680.03291680 Ry
     estimated scf accuracy    <       0.00000040 Ry

     iteration # 95     ecut=    30.00 Ry     beta= 0.40
     Davidson diagonalization with overlap
     ethr =  6.20E-11,  avg # of iterations =  5.0

     negative rho (up, down):  1.363E+00 0.000E+00

     total cpu time spent up to now is     1936.1 secs

     total energy              =   -7680.03291849 Ry
     estimated scf accuracy    <       0.00000071 Ry

     iteration # 96     ecut=    30.00 Ry     beta= 0.40
     Davidson diagonalization with overlap
     ethr =  6.20E-11,  avg # of iterations =  5.0

     negative rho (up, down):  1.363E+00 0.000E+00

     total cpu time spent up to now is     1956.2 secs

     total energy              =   -7680.03292135 Ry
     estimated scf accuracy    <       0.00000035 Ry

     iteration # 97     ecut=    30.00 Ry     beta= 0.40
     Davidson diagonalization with overlap
     ethr =  5.37E-11,  avg # of iterations =  5.0

     negative rho (up, down):  1.364E+00 0.000E+00

     total cpu time spent up to now is     1976.4 secs

     total energy              =   -7680.03292401 Ry
     estimated scf accuracy    <       0.00000071 Ry

     iteration # 98     ecut=    30.00 Ry     beta= 0.40
     Davidson diagonalization with overlap
     ethr =  5.37E-11,  avg # of iterations =  3.0

     negative rho (up, down):  1.364E+00 0.000E+00

     total cpu time spent up to now is     1996.5 secs

     total energy              =   -7680.03292675 Ry
     estimated scf accuracy    <       0.00000076 Ry

     iteration # 99     ecut=    30.00 Ry     beta= 0.40
     Davidson diagonalization with overlap
     ethr =  5.37E-11,  avg # of iterations =  3.0

     negative rho (up, down):  1.364E+00 0.000E+00

     total cpu time spent up to now is     2016.4 secs

     total energy              =   -7680.03292844 Ry
     estimated scf accuracy    <       0.00000100 Ry

     iteration #100     ecut=    30.00 Ry     beta= 0.40
     Davidson diagonalization with overlap
     ethr =  5.37E-11,  avg # of iterations =  3.0

     negative rho (up, down):  1.364E+00 0.000E+00

     total cpu time spent up to now is     2036.5 secs

     total energy              =   -7680.03293026 Ry
     estimated scf accuracy    <       0.00000108 Ry

     iteration #101     ecut=    30.00 Ry     beta= 0.40
     Davidson diagonalization with overlap
     ethr =  5.37E-11,  avg # of iterations =  3.0

     negative rho (up, down):  1.364E+00 0.000E+00

     total cpu time spent up to now is     2056.6 secs

     total energy              =   -7680.03291938 Ry
     estimated scf accuracy    <       0.00000196 Ry

     iteration #102     ecut=    30.00 Ry     beta= 0.40
     Davidson diagonalization with overlap
     ethr =  5.37E-11,  avg # of iterations =  4.0

     negative rho (up, down):  1.364E+00 0.000E+00

     total cpu time spent up to now is     2076.9 secs

     total energy              =   -7680.03290598 Ry
     estimated scf accuracy    <       0.00000928 Ry

     iteration #103     ecut=    30.00 Ry     beta= 0.40
     Davidson diagonalization with overlap
     ethr =  5.37E-11,  avg # of iterations =  3.0

     negative rho (up, down):  1.364E+00 0.000E+00

     total cpu time spent up to now is     2097.0 secs

     total energy              =   -7680.03288539 Ry
     estimated scf accuracy    <       0.00001607 Ry

     iteration #104     ecut=    30.00 Ry     beta= 0.40
     Davidson diagonalization with overlap
     ethr =  5.37E-11,  avg # of iterations =  4.0

     negative rho (up, down):  1.364E+00 0.000E+00

     total cpu time spent up to now is     2117.2 secs

     total energy              =   -7680.03289938 Ry
     estimated scf accuracy    <       0.00002524 Ry

     iteration #105     ecut=    30.00 Ry     beta= 0.40
     Davidson diagonalization with overlap
     ethr =  5.37E-11,  avg # of iterations =  3.0

     negative rho (up, down):  1.364E+00 0.000E+00

     total cpu time spent up to now is     2137.2 secs

     total energy              =   -7680.03291388 Ry
     estimated scf accuracy    <       0.00002007 Ry

     iteration #106     ecut=    30.00 Ry     beta= 0.40
     Davidson diagonalization with overlap
     ethr =  5.37E-11,  avg # of iterations =  3.0

     negative rho (up, down):  1.364E+00 0.000E+00

     total cpu time spent up to now is     2157.4 secs

     total energy              =   -7680.03292201 Ry
     estimated scf accuracy    <       0.00001666 Ry

     iteration #107     ecut=    30.00 Ry     beta= 0.40
     Davidson diagonalization with overlap
     ethr =  5.37E-11,  avg # of iterations =  3.0

     negative rho (up, down):  1.364E+00 0.000E+00

     total cpu time spent up to now is     2178.3 secs

     total energy              =   -7680.03292680 Ry
     estimated scf accuracy    <       0.00001274 Ry

     iteration #108     ecut=    30.00 Ry     beta= 0.40
     Davidson diagonalization with overlap
     ethr =  5.37E-11,  avg # of iterations =  3.0

     negative rho (up, down):  1.364E+00 0.000E+00

     total cpu time spent up to now is     2199.0 secs

     total energy              =   -7680.03292223 Ry
     estimated scf accuracy    <       0.00001100 Ry

     iteration #109     ecut=    30.00 Ry     beta= 0.40
     Davidson diagonalization with overlap
     ethr =  5.37E-11,  avg # of iterations =  3.0

     negative rho (up, down):  1.364E+00 0.000E+00

     total cpu time spent up to now is     2219.7 secs

     total energy              =   -7680.03292543 Ry
     estimated scf accuracy    <       0.00001305 Ry

     iteration #110     ecut=    30.00 Ry     beta= 0.40
     Davidson diagonalization with overlap
     ethr =  5.37E-11,  avg # of iterations =  3.0

     negative rho (up, down):  1.364E+00 0.000E+00

     total cpu time spent up to now is     2240.1 secs

     total energy              =   -7680.03291450 Ry
     estimated scf accuracy    <       0.00001228 Ry

     iteration #111     ecut=    30.00 Ry     beta= 0.40
     Davidson diagonalization with overlap
     ethr =  5.37E-11,  avg # of iterations =  3.0

     negative rho (up, down):  1.364E+00 0.000E+00

     total cpu time spent up to now is     2260.2 secs

     total energy              =   -7680.03289000 Ry
     estimated scf accuracy    <       0.00001739 Ry

     iteration #112     ecut=    30.00 Ry     beta= 0.40
     Davidson diagonalization with overlap
     ethr =  5.37E-11,  avg # of iterations =  4.0

     negative rho (up, down):  1.364E+00 0.000E+00

     total cpu time spent up to now is     2280.4 secs

     total energy              =   -7680.03294404 Ry
     estimated scf accuracy    <       0.00002586 Ry

     iteration #113     ecut=    30.00 Ry     beta= 0.40
     Davidson diagonalization with overlap
     ethr =  5.37E-11,  avg # of iterations =  5.0

     negative rho (up, down):  1.364E+00 0.000E+00

     total cpu time spent up to now is     2300.9 secs

     total energy              =   -7680.03292814 Ry
     estimated scf accuracy    <       0.00000233 Ry

     iteration #114     ecut=    30.00 Ry     beta= 0.40
     Davidson diagonalization with overlap
     ethr =  5.37E-11,  avg # of iterations =  5.0

     negative rho (up, down):  1.364E+00 0.000E+00

     total cpu time spent up to now is     2321.2 secs

     total energy              =   -7680.03291708 Ry
     estimated scf accuracy    <       0.00001091 Ry

     iteration #115     ecut=    30.00 Ry     beta= 0.40
     Davidson diagonalization with overlap
     ethr =  5.37E-11,  avg # of iterations =  3.0

     negative rho (up, down):  1.364E+00 0.000E+00

     total cpu time spent up to now is     2341.2 secs

     total energy              =   -7680.03291821 Ry
     estimated scf accuracy    <       0.00001523 Ry

     iteration #116     ecut=    30.00 Ry     beta= 0.40
     Davidson diagonalization with overlap
     ethr =  5.37E-11,  avg # of iterations =  3.0

     negative rho (up, down):  1.364E+00 0.000E+00

     total cpu time spent up to now is     2361.2 secs

     total energy              =   -7680.03291149 Ry
     estimated scf accuracy    <       0.00001455 Ry

     iteration #117     ecut=    30.00 Ry     beta= 0.40
     Davidson diagonalization with overlap
     ethr =  5.37E-11,  avg # of iterations =  3.0

     negative rho (up, down):  1.365E+00 0.000E+00

     total cpu time spent up to now is     2381.1 secs

     total energy              =   -7680.03290867 Ry
     estimated scf accuracy    <       0.00001722 Ry

     iteration #118     ecut=    30.00 Ry     beta= 0.40
     Davidson diagonalization with overlap
     ethr =  5.37E-11,  avg # of iterations =  3.0

     negative rho (up, down):  1.365E+00 0.000E+00

     total cpu time spent up to now is     2401.3 secs

     total energy              =   -7680.03290521 Ry
     estimated scf accuracy    <       0.00001931 Ry

     iteration #119     ecut=    30.00 Ry     beta= 0.40
     Davidson diagonalization with overlap
     ethr =  5.37E-11,  avg # of iterations =  3.0

     negative rho (up, down):  1.364E+00 0.000E+00

     total cpu time spent up to now is     2421.3 secs

     total energy              =   -7680.03292207 Ry
     estimated scf accuracy    <       0.00002002 Ry

     iteration #120     ecut=    30.00 Ry     beta= 0.40
     Davidson diagonalization with overlap
     ethr =  5.37E-11,  avg # of iterations =  5.0

     negative rho (up, down):  1.365E+00 0.000E+00

     total cpu time spent up to now is     2441.6 secs

     total energy              =   -7680.03291718 Ry
     estimated scf accuracy    <       0.00001547 Ry

     iteration #121     ecut=    30.00 Ry     beta= 0.40
     Davidson diagonalization with overlap
     ethr =  5.37E-11,  avg # of iterations =  5.0

     negative rho (up, down):  1.365E+00 0.000E+00

     total cpu time spent up to now is     2461.9 secs

     total energy              =   -7680.03279140 Ry
     estimated scf accuracy    <       0.00002003 Ry

     iteration #122     ecut=    30.00 Ry     beta= 0.40
     Davidson diagonalization with overlap
     ethr =  5.37E-11,  avg # of iterations =  6.0

     negative rho (up, down):  1.365E+00 0.000E+00

     total cpu time spent up to now is     2482.8 secs

     total energy              =   -7680.03270536 Ry
     estimated scf accuracy    <       0.00005324 Ry

     iteration #123     ecut=    30.00 Ry     beta= 0.40
     Davidson diagonalization with overlap
     ethr =  5.37E-11,  avg # of iterations =  5.0

     negative rho (up, down):  1.365E+00 0.000E+00

     total cpu time spent up to now is     2503.4 secs

     total energy              =   -7680.03278124 Ry
     estimated scf accuracy    <       0.00006759 Ry

     iteration #124     ecut=    30.00 Ry     beta= 0.40
     Davidson diagonalization with overlap
     ethr =  5.37E-11,  avg # of iterations =  5.0

     negative rho (up, down):  1.365E+00 0.000E+00

     total cpu time spent up to now is     2523.9 secs

     total energy              =   -7680.03285859 Ry
     estimated scf accuracy    <       0.00004759 Ry

     iteration #125     ecut=    30.00 Ry     beta= 0.40
     Davidson diagonalization with overlap
     ethr =  5.37E-11,  avg # of iterations =  5.0

     negative rho (up, down):  1.364E+00 0.000E+00

     total cpu time spent up to now is     2544.3 secs

     total energy              =   -7680.03295814 Ry
     estimated scf accuracy    <       0.00003026 Ry

     iteration #126     ecut=    30.00 Ry     beta= 0.40
     Davidson diagonalization with overlap
     ethr =  5.37E-11,  avg # of iterations =  7.0

     negative rho (up, down):  1.364E+00 0.000E+00

     total cpu time spent up to now is     2565.2 secs

     total energy              =   -7680.03296103 Ry
     estimated scf accuracy    <       0.00000266 Ry

     iteration #127     ecut=    30.00 Ry     beta= 0.40
     Davidson diagonalization with overlap
     ethr =  5.37E-11,  avg # of iterations =  5.0

     negative rho (up, down):  1.364E+00 0.000E+00

     total cpu time spent up to now is     2585.4 secs

     total energy              =   -7680.03296122 Ry
     estimated scf accuracy    <       0.00000035 Ry

     iteration #128     ecut=    30.00 Ry     beta= 0.40
     Davidson diagonalization with overlap
     ethr =  5.37E-11,  avg # of iterations =  3.0

     negative rho (up, down):  1.364E+00 0.000E+00

     total cpu time spent up to now is     2605.3 secs

     total energy              =   -7680.03296083 Ry
     estimated scf accuracy    <       0.00000036 Ry

     iteration #129     ecut=    30.00 Ry     beta= 0.40
     Davidson diagonalization with overlap
     ethr =  5.37E-11,  avg # of iterations =  3.0

     negative rho (up, down):  1.364E+00 0.000E+00

     total cpu time spent up to now is     2625.3 secs

     End of self-consistent calculation

          k = 0.0000 0.0000 0.0000 ( 46193 PWs)   bands (ev):

   -57.3910 -57.3773 -57.3724 -57.3130 -57.3007 -57.2999 -57.2956 -57.2879
   -57.2836 -57.2801 -57.2712 -57.2617 -57.2517 -57.2439 -57.2417 -57.2404
   -57.2324 -57.2307 -57.2299 -57.2203 -57.2167 -57.2071 -57.2002 -57.1920
   -57.1874 -57.1822 -57.1791 -57.1682 -57.1160 -57.0708 -57.0509 -57.0241
   -44.4593 -33.8220 -33.8077 -33.7855 -33.7650 -33.7576 -33.7553 -33.7437
   -33.7366 -33.7294 -33.7252 -33.7153 -33.7113 -33.7078 -33.6940 -33.6913
   -33.6839 -33.6802 -33.6720 -33.6668 -33.6566 -33.6444 -33.6383 -33.6308
   -33.6254 -33.6170 -33.6128 -33.6060 -33.6022 -33.5848 -33.5789 -33.5780
   -33.5718 -33.5617 -33.5573 -33.5446 -33.5443 -33.5426 -33.5330 -33.5318
   -33.5282 -33.5233 -33.5129 -33.5121 -33.5083 -33.4994 -33.4968 -33.4900
   -33.4869 -33.4801 -33.4792 -33.4778 -33.4696 -33.4675 -33.4645 -33.4612
   -33.4572 -33.4528 -33.4498 -33.4466 -33.4396 -33.4346 -33.4293 -33.4258
   -33.4248 -33.4168 -33.4132 -33.4103 -33.4058 -33.4038 -33.3980 -33.3920
   -33.3890 -33.3857 -33.3818 -33.3809 -33.3717 -33.3664 -33.3621 -33.3561
   -33.3516 -33.3423 -33.3381 -33.3308 -33.3270 -33.3125 -33.3093 -33.3020
   -33.2974 -33.2964 -33.2781 -33.2524 -33.2392 -33.2327 -33.2262 -33.2089
   -33.1603 -24.5080 -24.3498 -24.3422 -18.4999 -18.3809 -18.3369 -17.7665
   -17.6933 -17.5677 -17.5510 -17.5384 -17.5070 -17.4969 -17.4944 -17.4912
   -17.4826 -17.4459 -17.4283 -17.3989 -17.3908 -17.3495 -17.3399 -17.3382
   -17.3291 -17.3232 -17.3151 -17.3061 -17.3004 -17.2951 -17.2829 -17.2442
   -17.2323 -17.1861 -17.1482 -17.1093 -10.4073 -10.0214 -10.0029  -9.9967
    -9.8755  -9.8687  -9.8228  -9.3585  -9.2777  -9.1505  -9.1069  -9.0824
    -9.0801  -8.9872  -8.9760  -8.9495  -5.8234  -5.5183  -5.4958  -5.2676
    -5.1547  -5.0729  -5.0005  -4.8493  -4.8388  -4.7421  -4.7188  -4.7063
    -4.6766  -4.6417  -4.5482  -4.5152  -4.5132  -4.5118  -4.4744  -4.4454
    -4.4371  -4.4326  -4.3986  -4.3919  -4.3833  -4.3678  -4.3470  -4.3355
    -4.2726  -4.2597  -4.1886  -4.1833  -4.1799  -4.0864  -4.0763  -4.0560
    -4.0501  -4.0287  -4.0178  -4.0036  -3.9880  -3.9766  -3.9513  -3.9387
    -3.9370  -3.9216  -3.9064  -3.7320  -3.7033  -3.6674  -3.6373  -3.6227
    -3.6174  -3.6066  -3.5934  -3.5899  -3.5726  -3.5608  -3.5513  -3.5420
    -3.5337  -3.5271  -3.5039  -3.4915  -3.4657  -3.4645  -3.4601  -3.4432
    -3.4149  -3.3864  -3.3781  -3.3737  -3.3651  -3.3582  -3.3557  -3.3518
    -3.3410  -3.3256  -3.2354  -3.2135  -3.1972  -3.1921  -3.1716  -3.1424
    -3.1093  -3.1060  -3.0498  -3.0451  -3.0142  -3.0049  -2.9971  -2.9845
    -2.9535  -2.8765  -2.8653  -2.8502  -2.6329  -2.6093  -2.5847  -2.2558
    -2.2507  -2.1392  -2.0025  -1.9864  -1.9601  -1.9488  -1.9142  -1.8993
    -1.8828  -1.8430  -1.8294  -1.8269  -1.8032  -1.7622  -1.7459  -1.7366
    -1.7163  -1.7019  -1.6170  -1.6032  -1.5820  -1.5028  -1.4543  -0.9701
    -0.9667  -0.9365  -0.7938  -0.7554  -0.7350  -0.6663  -0.5945  -0.5872
    -0.5480  -0.5316  -0.4936  -0.4569  -0.4237  -0.3809  -0.3504  -0.3291
    -0.3159  -0.2293   0.8208   0.8292   0.9279   0.9502   0.9957   1.0653
     1.3681   1.4649   1.4997   1.5435   1.5615   1.6117   1.6963   1.7122
     1.7924   1.7975   1.8153   1.9811   2.0337   2.0426   2.0516   2.0917
     2.1201   2.1689   2.1818   2.5001   2.5033   2.5088   2.5247   2.5329
     2.5529   2.5703   2.6113   2.6199   2.6242   2.6674   2.6862   2.7171
     2.7255   2.7661   2.7681   2.7763   2.7925   2.8393   2.8528   2.8682
     2.9099   2.9139   2.9175   2.9283   2.9386   2.9464   2.9690   2.9711
     2.9800   3.2183   3.2285   3.2403   3.2425   3.2781   3.3029   3.3143
     3.3306   3.3462   3.3516   3.3697   3.3800   3.3860   3.4039

     the Fermi energy is     0.9550 ev

!    total energy              =   -7680.03296118 Ry
     estimated scf accuracy    <       0.00000005 Ry
     smearing contrib. (-TS)   =      -0.00510094 Ry
     internal energy E=F+TS    =   -7680.02786024 Ry

     The total energy is F=E-TS. E is the sum of the following terms:
     one-electron contribution =  -36420.08989533 Ry
     hartree contribution      =   18276.62407399 Ry
     xc contribution           =    -890.72103705 Ry
     ewald contribution        =   13963.68400082 Ry
     one-center paw contrib.   =   -2609.52500268 Ry

     convergence has been achieved in 129 iterations

     negative rho (up, down):  1.364E+00 0.000E+00

     Forces acting on atoms (cartesian axes, Ry/au):

     atom    1 type  1   force =     0.01303194    0.00307115    0.01286935
     atom    2 type  1   force =     0.00247178    0.00046861    0.00492602
     atom    3 type  1   force =    -0.01706923   -0.00191639    0.03037241
     atom    4 type  1   force =    -0.00444406    0.00119509    0.00445334
     atom    5 type  1   force =     0.02853175    0.00517755    0.01959169
     atom    6 type  1   force =     0.01411811    0.01586778    0.01361374
     atom    7 type  1   force =     0.00167233   -0.00025386    0.00466304
     atom    8 type  1   force =     0.00706678   -0.02912540    0.01840171
     atom    9 type  1   force =    -0.01293662    0.00493921    0.00992596
     atom   10 type  1   force =    -0.00004863   -0.01314518    0.01131550
     atom   11 type  1   force =     0.00505192   -0.00083689    0.00420546
     atom   12 type  1   force =    -0.00902641   -0.01279372    0.01263338
     atom   13 type  1   force =     0.00045608   -0.00075773    0.00213410
     atom   14 type  1   force =    -0.01767501   -0.00279496    0.00928755
     atom   15 type  1   force =    -0.01584658    0.01898769    0.01095330
     atom   16 type  1   force =     0.00146192    0.00084583    0.00145507
     atom   17 type  2   force =    -0.00625091   -0.00227229    0.00708463
     atom   18 type  2   force =    -0.00756729   -0.00523455    0.00562103
     atom   19 type  2   force =     0.00267518    0.00200035    0.00522444
     atom   20 type  2   force =    -0.00138846    0.01393533    0.00432197
     atom   21 type  2   force =     0.02980133   -0.01588053   -0.00851518
     atom   22 type  2   force =     0.00263642   -0.00462229    0.00238821
     atom   23 type  2   force =     0.01349893   -0.00401900    0.00784398
     atom   24 type  2   force =     0.00367001   -0.00653952    0.00667188
     atom   25 type  2   force =    -0.01739264   -0.01215214    0.00746008
     atom   26 type  2   force =    -0.00458709    0.00379189    0.00222924
     atom   27 type  2   force =    -0.00123349    0.00046737   -0.00130476
     atom   28 type  2   force =     0.01385000    0.00781456    0.01643728
     atom   29 type  2   force =     0.07011787    0.04799870    0.07396243
     atom   30 type  2   force =     0.00195413    0.00888868    0.00408730
     atom   31 type  2   force =     0.00242077    0.01201772    0.00655225
     atom   32 type  2   force =    -0.02530614   -0.07044680    0.08394950
     atom   33 type  2   force =    -0.00111292    0.02591488   -0.00724035
     atom   34 type  2   force =     0.00988592   -0.00803603    0.00377689
     atom   35 type  2   force =     0.00592837   -0.00848827    0.00616471
     atom   36 type  2   force =    -0.06874428    0.01528939    0.08305231
     atom   37 type  2   force =    -0.01376723   -0.00032626    0.00940241
     atom   38 type  2   force =    -0.00251422    0.00583487    0.00506217
     atom   39 type  2   force =    -0.01387199   -0.00449229    0.00410300
     atom   40 type  2   force =    -0.00480322    0.00013359    0.00018529
     atom   41 type  2   force =     0.00412190    0.00170835    0.00549385
     atom   42 type  2   force =     0.00740170    0.00307574    0.00241686
     atom   43 type  2   force =    -0.00648278   -0.00491947    0.00683856
     atom   44 type  2   force =     0.00910783   -0.00154708    0.00590099
     atom   45 type  2   force =    -0.00118947   -0.00352271    0.00052917
     atom   46 type  2   force =    -0.00720105   -0.01338141    0.01141434
     atom   47 type  2   force =    -0.00016134   -0.00051226   -0.00150221
     atom   48 type  2   force =    -0.00314266    0.01125205    0.00675617
     atom   49 type  3   force =     0.00874070   -0.04805617   -0.02633151
     atom   50 type  3   force =    -0.03177178    0.02567881   -0.03520005
     atom   51 type  3   force =    -0.01223318   -0.01072271   -0.02917115
     atom   52 type  3   force =    -0.01582954    0.01614448    0.00506294
     atom   53 type  3   force =    -0.01802274    0.00925727   -0.01779991
     atom   54 type  3   force =     0.00027941   -0.01825632   -0.01907660
     atom   55 type  3   force =     0.00121791   -0.01404790    0.00776993
     atom   56 type  3   force =    -0.00041558   -0.00166760    0.00352523
     atom   57 type  3   force =     0.00381708    0.02903188   -0.02310249
     atom   58 type  3   force =    -0.02815080   -0.00355854   -0.04027807
     atom   59 type  3   force =     0.06486872    0.03407629   -0.06110027
     atom   60 type  3   force =    -0.00154705    0.02343031   -0.01709060
     atom   61 type  3   force =     0.00799919    0.04887159   -0.01519345
     atom   62 type  3   force =     0.01410270   -0.01083965   -0.01741918
     atom   63 type  3   force =    -0.00005235    0.00178693    0.00919328
     atom   64 type  3   force =     0.02645504   -0.00972816   -0.02335796
     atom   65 type  3   force =     0.04155354   -0.01633654   -0.01065904
     atom   66 type  3   force =     0.01144253    0.00786209   -0.00516511
     atom   67 type  3   force =     0.01020114    0.00641642   -0.00482793
     atom   68 type  3   force =    -0.04789001   -0.03422625   -0.01014393
     atom   69 type  3   force =     0.00481754    0.00688524   -0.00866649
     atom   70 type  3   force =    -0.00076889    0.00190859   -0.01539074
     atom   71 type  3   force =     0.00182710   -0.00217489    0.00318722
     atom   72 type  3   force =     0.00993540   -0.00131368   -0.01193126
     atom   73 type  3   force =    -0.00314960    0.00222173    0.00616730
     atom   74 type  3   force =    -0.02486109    0.00613001   -0.00921194
     atom   75 type  3   force =     0.00273750   -0.00253747    0.00175765
     atom   76 type  3   force =    -0.00322830   -0.00110443   -0.02029245
     atom   77 type  3   force =    -0.01386342   -0.01433892   -0.01461563
     atom   78 type  3   force =    -0.00264406   -0.01601003    0.00230324
     atom   79 type  3   force =     0.01080644    0.00325334   -0.00473382
     atom   80 type  3   force =     0.00050607    0.00294132   -0.00023657
     atom   81 type  4   force =    -0.00404885   -0.00363641   -0.13514067

     Total force =     0.324419     Total SCF correction =     0.000855


     Computing stress (Cartesian axis) and pressure


     negative rho (up, down):  1.364E+00 0.000E+00
          total   stress  (Ry/bohr**3)                   (kbar)     P=     -111.97
  -0.00077648   0.00000170   0.00000011         -114.22        0.25        0.02
   0.00000170  -0.00077862   0.00000069            0.25     -114.54        0.10
   0.00000011   0.00000069  -0.00072839            0.02        0.10     -107.15


     Writing all to output data dir /root/qe_scratch/cand160_B_Ti2CO2_Y.save/ :
     XML data file, charge density, pseudopotentials, collected wavefunctions
 
     init_run     :     20.76s CPU     26.27s WALL (       1 calls)
     electrons    :   2149.76s CPU   2598.17s WALL (       1 calls)
     forces       :      1.78s CPU      1.82s WALL (       1 calls)
     stress       :      2.77s CPU      2.83s WALL (       1 calls)

     Called by init_run:
     wfcinit      :      0.95s CPU      1.16s WALL (       1 calls)
     potinit      :     18.52s CPU     23.28s WALL (       1 calls)
     hinit0       :      0.73s CPU      0.85s WALL (       1 calls)

     Called by electrons:
     c_bands      :    224.74s CPU    225.10s WALL (     129 calls)
     sum_band     :     32.34s CPU     32.44s WALL (     129 calls)
     v_of_rho     :     10.92s CPU     14.20s WALL (     130 calls)
     newd         :     41.41s CPU     41.56s WALL (     130 calls)
                                       41.56s GPU  (     130 calls)
     PAW_pot      :   1826.68s CPU   2269.64s WALL (     130 calls)
     mix_rho      :      8.30s CPU      8.83s WALL (     129 calls)

     Called by c_bands:
     init_us_2    :      0.76s CPU      0.77s WALL (     259 calls)
     cegterg      :    221.84s CPU    222.08s WALL (     129 calls)

     Called by *egterg:
     cdiaghg      :     20.00s CPU     20.06s WALL (     717 calls)
                                       20.05s GPU  (     717 calls)
     h_psi        :     85.68s CPU     86.04s WALL (     718 calls)
                                       85.99s GPU  (     718 calls)
     s_psi        :      1.83s CPU      1.84s WALL (     718 calls)
     g_psi        :      0.00s CPU      0.26s WALL (     588 calls)
                                        0.26s GPU  (     588 calls)

     Called by h_psi:
     h_psi:calbec :      0.11s CPU     32.88s WALL (     718 calls)
                                       32.88s GPU  (     718 calls)
     vloc_psi     :     26.82s CPU     26.97s WALL (     718 calls)
                                       26.97s GPU  (     718 calls)
     add_vuspsi   :      1.89s CPU     25.98s WALL (     718 calls)
                                       25.97s GPU  (     718 calls)

     General routines
     calbec       :      0.11s CPU      0.28s WALL (     852 calls)
     fft          :     12.25s CPU     16.41s WALL (    1713 calls)
                                        0.33s GPU  (    1583 calls)
     ffts         :      6.11s CPU      7.75s WALL (     259 calls)
                                        0.02s GPU  (     129 calls)
     fftw         :      0.26s CPU     27.19s WALL (   18533 calls)
                                       27.13s GPU  (   18533 calls)
     interpolate  :     19.56s CPU     25.18s WALL (     130 calls)
 
     Parallel routines
 
     PWSCF        :  36m16.14s CPU  43m50.49s WALL

 
   This run was terminated on:  15:37:51   6May2026            

=------------------------------------------------------------------------------=
   JOB DONE.
=------------------------------------------------------------------------------=
Warning: ieee_invalid is signaling
Warning: ieee_divide_by_zero is signaling
Warning: ieee_underflow is signaling
Warning: ieee_inexact is signaling
FORTRAN STOP
