--------------------------------------------------------------------------
WARNING: Open MPI tried to bind a process but failed.  This is a
warning only; your job will continue, though performance may
be degraded.

  Local host:        3253031b5b37
  Application name:  /root/qe-7.3.1/bin/pw.x
  Error message:     failed to bind memory
  Location:          ../../../../../orte/mca/rtc/hwloc/rtc_hwloc.c:447

--------------------------------------------------------------------------

     Program PWSCF v.7.3.1 starts on  6May2026 at  7:45:20 

     This program is part of the open-source Quantum ESPRESSO suite
     for quantum simulation of materials; please cite
         "P. Giannozzi et al., J. Phys.:Condens. Matter 21 395502 (2009);
         "P. Giannozzi et al., J. Phys.:Condens. Matter 29 465901 (2017);
         "P. Giannozzi et al., J. Chem. Phys. 152 154105 (2020);
          URL http://www.quantum-espresso.org", 
     in publications or presentations arising from this work. More details at
     http://www.quantum-espresso.org/quote

     Parallel version (MPI & OpenMP), running on       8 processor cores
     Number of MPI processes:                 1
     Threads/MPI process:                     8

     MPI processes distributed on     1 nodes
     91365 MiB available memory on the printing compute node when the environment starts
 
     Reading input from /root/qe_inputs/candidates/cand000_A_SnS2_Cu.in

     Current dimensions of program PWSCF are:
     Max number of different atomic species (ntypx) = 10
     Max number of k-points (npk) =  40000
     Max angular momentum in pseudopotentials (lmaxx) =  4
     file S.UPF: wavefunction(s)  3S 3P renormalized
     file Sn.UPF: wavefunction(s)  5S 4D renormalized
 
     Subspace diagonalization in iterative solution of the eigenvalue problem:
     a serial algorithm will be used

 
     G-vector sticks info
     --------------------
     sticks:   dense  smooth     PW     G-vecs:    dense   smooth      PW
     Sum        5197    3463    859               509859   277387   34603
 
     Using Slab Decomposition
 


     bravais-lattice index     =            0
     lattice parameter (alat)  =      20.4672  a.u.
     unit-cell volume          =   12496.6279 (a.u.)^3
     number of atoms/cell      =           28
     number of atomic types    =            3
     number of electrons       =       245.00
     number of Kohn-Sham states=          148
     kinetic-energy cutoff     =      30.0000  Ry
     charge density cutoff     =     180.0000  Ry
     scf convergence threshold =      1.0E-07
     mixing beta               =       0.4000
     number of iterations used =            8  plain     mixing
     Exchange-correlation= PBE
                           (   1   4   3   4   0   0   0)

     GPU acceleration is ACTIVE.  1 visible GPUs per MPI rank


     celldm(1)=  20.467172  celldm(2)=   0.000000  celldm(3)=   0.000000
     celldm(4)=   0.000000  celldm(5)=   0.000000  celldm(6)=   0.000000

     crystal axes: (cart. coord. in units of alat)
               a(1) = (   1.000000   0.000000   0.000000 )  
               a(2) = (  -0.500000   0.866025   0.000000 )  
               a(3) = (   0.000000   0.000000   1.683018 )  

     reciprocal axes: (cart. coord. in units 2 pi/alat)
               b(1) = (  1.000000  0.577350 -0.000000 )  
               b(2) = (  0.000000  1.154701  0.000000 )  
               b(3) = (  0.000000 -0.000000  0.594171 )  


     PseudoPot. # 1 for Cu read from file:
     /root/qe_pseudos/Cu.UPF
     MD5 check sum: fe769b0ab65dca5f3352e2411ad4c6f8
     Pseudo is Projector augmented-wave + core cor, Zval = 11.0
     Generated using "atomic" code by A. Dal Corso (espresso distribution)
     Shape of augmentation charge: BESSEL
     Using radial grid of 1199 points,  6 beta functions with: 
                l(1) =   2
                l(2) =   2
                l(3) =   0
                l(4) =   0
                l(5) =   1
                l(6) =   1
     Q(r) pseudized with 0 coefficients 


     PseudoPot. # 2 for S  read from file:
     /root/qe_pseudos/S.UPF
     MD5 check sum: fb45dfebcf3e72a4e1bd4a866ec2e262
     Pseudo is Projector augmented-wave + core cor, Zval =  6.0
     Generated using &quot;atomic&quot; code by A. Dal Corso  v.6.3
     Shape of augmentation charge: PSQ
     Using radial grid of 1151 points,  6 beta functions with: 
                l(1) =   0
                l(2) =   0
                l(3) =   1
                l(4) =   1
                l(5) =   2
                l(6) =   2
     Q(r) pseudized with 0 coefficients 


     PseudoPot. # 3 for Sn read from file:
     /root/qe_pseudos/Sn.UPF
     MD5 check sum: 72e22d5a9e1ec4fde6a02e1f963898e9
     Pseudo is Ultrasoft + core correction, Zval = 14.0
     Generated using &quot;atomic&quot; code by A. Dal Corso  v.6.3
     Using radial grid of 1243 points,  6 beta functions with: 
                l(1) =   0
                l(2) =   0
                l(3) =   1
                l(4) =   1
                l(5) =   2
                l(6) =   2
     Q(r) pseudized with 0 coefficients 


     atomic species   valence    mass     pseudopotential
     Cu               11.00    63.54600     Cu( 1.00)
     S                 6.00    32.06000     S ( 1.00)
     Sn               14.00   118.71000     Sn( 1.00)

     No symmetry found



   Cartesian axes

     site n.     atom                  positions (alat units)
         1        S      tau(   1) = (   0.4900215   0.6588854   0.9985058  )
         2        S      tau(   2) = (   0.6538486   0.3745269   0.6834131  )
         3        S      tau(   3) = (   0.6537706   0.3750821   0.9996569  )
         4        S      tau(   4) = (   0.8128499   0.0820383   0.6726769  )
         5        S      tau(   5) = (   0.8125010   0.0813966   1.0112085  )
         6        S      tau(   6) = (   0.1665749   0.6751931   0.6901494  )
         7        S      tau(   7) = (   0.1666139   0.6751546   0.9924514  )
         8        S      tau(   8) = (   0.3278882   0.3829211   0.6923310  )
         9        S      tau(   9) = (   0.4898790   0.6587225   0.6843490  )
        10        S      tau(  10) = (   0.5023913   0.0962806   0.6905868  )
        11        S      tau(  11) = (   0.3273763   0.3832119   0.9904406  )
        12        S      tau(  12) = (  -0.1619037   0.6807095   0.6918187  )
        13        S      tau(  13) = (  -0.1615245   0.6799063   0.9918001  )
        14        S      tau(  14) = (  -0.0029154   0.3945453   0.6909524  )
        15        S      tau(  15) = (  -0.0023662   0.3945489   0.9914137  )
        16        S      tau(  16) = (   0.1829372   0.1026428   0.6875176  )
        17        S      tau(  17) = (   0.1824803   0.1023541   0.9950766  )
        18        S      tau(  18) = (   0.5021559   0.0966926   0.9930255  )
        19        Sn     tau(  19) = (   0.1686614   0.2852875   0.8412727  )
        20        Sn     tau(  20) = (   0.3448997   0.0032323   0.8413894  )
        21        Sn     tau(  21) = (   0.0058242   0.5909833   0.8413370  )
        22        Sn     tau(  22) = (  -0.3320475   0.5795064   0.8414597  )
        23        Sn     tau(  23) = (   0.6617638  -0.0015783   0.8415873  )
        24        Sn     tau(  24) = (   0.4974670   0.2854003   0.8414638  )
        25        Sn     tau(  25) = (  -0.1785087   0.3669810   0.8417125  )
        26        Sn     tau(  26) = (   0.3307502   0.5746836   0.8413294  )
        27        Sn     tau(  27) = (   0.0621188  -0.0444636   0.8414465  )
        28        Cu     tau(  28) = (  -0.0868409   0.1357718   0.8418753  )

     number of k points=     1  Methfessel-Paxton smearing, width (Ry)=  0.0100
                       cart. coord. in units 2pi/alat
        k(    1) = (   0.0000000   0.0000000   0.0000000), wk =   2.0000000

     Dense  grid:   509859 G-vectors     FFT dimensions: (  90,  90, 150)

     Smooth grid:   277387 G-vectors     FFT dimensions: (  72,  72, 125)

     Estimated max dynamical RAM per process >       2.47 GB

     Check: negative core charge=   -0.000003

     Initial potential from superposition of free atoms

     starting charge     244.9867, renormalised to     245.0000

     negative rho (up, down):  2.653E-02 0.000E+00
     Starting wfcs are  162 randomized atomic wfcs
     Checking if some PAW data can be deallocated... 

     total cpu time spent up to now is       17.1 secs

     Self-consistent Calculation

     iteration #  1     ecut=    30.00 Ry     beta= 0.40
     Davidson diagonalization with overlap
     ethr =  1.00E-02,  avg # of iterations =  4.0

     negative rho (up, down):  2.527E-02 0.000E+00

     total cpu time spent up to now is       25.7 secs

     total energy              =   -2861.66455341 Ry
     estimated scf accuracy    <       8.52627016 Ry

     iteration #  2     ecut=    30.00 Ry     beta= 0.40
     Davidson diagonalization with overlap
     ethr =  3.48E-03,  avg # of iterations =  4.0

     negative rho (up, down):  2.561E-02 0.000E+00

     total cpu time spent up to now is       34.3 secs

     total energy              =   -2865.85813610 Ry
     estimated scf accuracy    <      22.06145590 Ry

     iteration #  3     ecut=    30.00 Ry     beta= 0.40
     Davidson diagonalization with overlap
     ethr =  3.48E-03,  avg # of iterations =  3.0

     negative rho (up, down):  2.575E-02 0.000E+00

     total cpu time spent up to now is       42.8 secs

     total energy              =   -2867.31803496 Ry
     estimated scf accuracy    <       3.22710975 Ry

     iteration #  4     ecut=    30.00 Ry     beta= 0.40
     Davidson diagonalization with overlap
     ethr =  1.32E-03,  avg # of iterations =  3.0

     negative rho (up, down):  2.584E-02 0.000E+00

     total cpu time spent up to now is       51.4 secs

     total energy              =   -2867.43945547 Ry
     estimated scf accuracy    <       1.30773056 Ry

     iteration #  5     ecut=    30.00 Ry     beta= 0.40
     Davidson diagonalization with overlap
     ethr =  5.34E-04,  avg # of iterations = 10.0

     negative rho (up, down):  2.569E-02 0.000E+00

     total cpu time spent up to now is       60.1 secs

     total energy              =   -2867.24055403 Ry
     estimated scf accuracy    <       0.60676898 Ry

     iteration #  6     ecut=    30.00 Ry     beta= 0.40
     Davidson diagonalization with overlap
     ethr =  2.48E-04,  avg # of iterations =  5.0

     negative rho (up, down):  2.560E-02 0.000E+00

     total cpu time spent up to now is       68.7 secs

     total energy              =   -2867.36049480 Ry
     estimated scf accuracy    <       0.89215491 Ry

     iteration #  7     ecut=    30.00 Ry     beta= 0.40
     Davidson diagonalization with overlap
     ethr =  2.48E-04,  avg # of iterations =  2.0

     negative rho (up, down):  2.557E-02 0.000E+00

     total cpu time spent up to now is       77.2 secs

     total energy              =   -2867.23057826 Ry
     estimated scf accuracy    <       1.43531918 Ry

     iteration #  8     ecut=    30.00 Ry     beta= 0.40
     Davidson diagonalization with overlap
     ethr =  2.48E-04,  avg # of iterations =  2.0

     negative rho (up, down):  2.545E-02 0.000E+00

     total cpu time spent up to now is       85.7 secs

     total energy              =   -2867.38421014 Ry
     estimated scf accuracy    <       0.14510088 Ry

     iteration #  9     ecut=    30.00 Ry     beta= 0.40
     Davidson diagonalization with overlap
     ethr =  5.92E-05,  avg # of iterations = 16.0

     negative rho (up, down):  2.533E-02 0.000E+00

     total cpu time spent up to now is       94.6 secs

     total energy              =   -2867.38809057 Ry
     estimated scf accuracy    <       0.09244567 Ry

     iteration # 10     ecut=    30.00 Ry     beta= 0.40
     Davidson diagonalization with overlap
     ethr =  3.77E-05,  avg # of iterations =  2.0

     negative rho (up, down):  2.526E-02 0.000E+00

     total cpu time spent up to now is      103.1 secs

     total energy              =   -2867.38801395 Ry
     estimated scf accuracy    <       0.07644409 Ry

     iteration # 11     ecut=    30.00 Ry     beta= 0.40
     Davidson diagonalization with overlap
     ethr =  3.12E-05,  avg # of iterations =  1.0

     negative rho (up, down):  2.520E-02 0.000E+00

     total cpu time spent up to now is      111.5 secs

     total energy              =   -2867.38078107 Ry
     estimated scf accuracy    <       0.05907361 Ry

     iteration # 12     ecut=    30.00 Ry     beta= 0.40
     Davidson diagonalization with overlap
     ethr =  2.41E-05,  avg # of iterations =  2.0

     negative rho (up, down):  2.521E-02 0.000E+00

     total cpu time spent up to now is      120.1 secs

     total energy              =   -2867.38314428 Ry
     estimated scf accuracy    <       0.00902217 Ry

     iteration # 13     ecut=    30.00 Ry     beta= 0.40
     Davidson diagonalization with overlap
     ethr =  3.68E-06,  avg # of iterations = 10.0

     negative rho (up, down):  2.519E-02 0.000E+00

     total cpu time spent up to now is      128.9 secs

     total energy              =   -2867.38129636 Ry
     estimated scf accuracy    <       0.01433971 Ry

     iteration # 14     ecut=    30.00 Ry     beta= 0.40
     Davidson diagonalization with overlap
     ethr =  3.68E-06,  avg # of iterations =  2.0

     negative rho (up, down):  2.519E-02 0.000E+00

     total cpu time spent up to now is      137.4 secs

     total energy              =   -2867.38118422 Ry
     estimated scf accuracy    <       0.00326773 Ry

     iteration # 15     ecut=    30.00 Ry     beta= 0.40
     Davidson diagonalization with overlap
     ethr =  1.33E-06,  avg # of iterations =  3.0

     negative rho (up, down):  2.518E-02 0.000E+00

     total cpu time spent up to now is      145.9 secs

     total energy              =   -2867.38115566 Ry
     estimated scf accuracy    <       0.00145800 Ry

     iteration # 16     ecut=    30.00 Ry     beta= 0.40
     Davidson diagonalization with overlap
     ethr =  5.95E-07,  avg # of iterations =  2.0

     negative rho (up, down):  2.516E-02 0.000E+00

     total cpu time spent up to now is      154.4 secs

     total energy              =   -2867.38072392 Ry
     estimated scf accuracy    <       0.00111707 Ry

     iteration # 17     ecut=    30.00 Ry     beta= 0.40
     Davidson diagonalization with overlap
     ethr =  4.56E-07,  avg # of iterations =  5.0

     negative rho (up, down):  2.516E-02 0.000E+00

     total cpu time spent up to now is      162.9 secs

     total energy              =   -2867.38084961 Ry
     estimated scf accuracy    <       0.00022517 Ry

     iteration # 18     ecut=    30.00 Ry     beta= 0.40
     Davidson diagonalization with overlap
     ethr =  9.19E-08,  avg # of iterations =  2.0

     negative rho (up, down):  2.516E-02 0.000E+00

     total cpu time spent up to now is      171.4 secs

     total energy              =   -2867.38086005 Ry
     estimated scf accuracy    <       0.00005351 Ry

     iteration # 19     ecut=    30.00 Ry     beta= 0.40
     Davidson diagonalization with overlap
     ethr =  2.18E-08,  avg # of iterations =  2.0

     negative rho (up, down):  2.516E-02 0.000E+00

     total cpu time spent up to now is      179.9 secs

     total energy              =   -2867.38086310 Ry
     estimated scf accuracy    <       0.00002325 Ry

     iteration # 20     ecut=    30.00 Ry     beta= 0.40
     Davidson diagonalization with overlap
     ethr =  9.49E-09,  avg # of iterations =  2.0

     negative rho (up, down):  2.516E-02 0.000E+00

     total cpu time spent up to now is      188.4 secs

     total energy              =   -2867.38086405 Ry
     estimated scf accuracy    <       0.00000449 Ry

     iteration # 21     ecut=    30.00 Ry     beta= 0.40
     Davidson diagonalization with overlap
     ethr =  1.83E-09,  avg # of iterations =  2.0

     negative rho (up, down):  2.517E-02 0.000E+00

     total cpu time spent up to now is      197.0 secs

     total energy              =   -2867.38086430 Ry
     estimated scf accuracy    <       0.00000271 Ry

     iteration # 22     ecut=    30.00 Ry     beta= 0.40
     Davidson diagonalization with overlap
     ethr =  1.11E-09,  avg # of iterations =  2.0

     negative rho (up, down):  2.517E-02 0.000E+00

     total cpu time spent up to now is      205.5 secs

     total energy              =   -2867.38086445 Ry
     estimated scf accuracy    <       0.00000331 Ry

     iteration # 23     ecut=    30.00 Ry     beta= 0.40
     Davidson diagonalization with overlap
     ethr =  1.11E-09,  avg # of iterations =  2.0

     negative rho (up, down):  2.517E-02 0.000E+00

     total cpu time spent up to now is      214.0 secs

     total energy              =   -2867.38086470 Ry
     estimated scf accuracy    <       0.00000047 Ry

     iteration # 24     ecut=    30.00 Ry     beta= 0.40
     Davidson diagonalization with overlap
     ethr =  1.92E-10,  avg # of iterations =  4.0

     negative rho (up, down):  2.517E-02 0.000E+00

     total cpu time spent up to now is      222.5 secs

     total energy              =   -2867.38086475 Ry
     estimated scf accuracy    <       0.00000019 Ry

     iteration # 25     ecut=    30.00 Ry     beta= 0.40
     Davidson diagonalization with overlap
     ethr =  7.87E-11,  avg # of iterations =  1.0

     negative rho (up, down):  2.517E-02 0.000E+00

     total cpu time spent up to now is      230.9 secs

     End of self-consistent calculation

          k = 0.0000 0.0000 0.0000 ( 34603 PWs)   bands (ev):

   -23.4790 -23.2902 -23.1953 -23.1811 -23.1497 -23.1316 -23.1251 -23.1027
   -23.0888 -23.0801 -23.0778 -23.0687 -23.0580 -23.0561 -23.0483 -23.0436
   -23.0236 -23.0216 -23.0183 -23.0150 -23.0053 -23.0010 -22.9928 -22.9922
   -22.9869 -22.9760 -22.9747 -22.9701 -22.9649 -22.9597 -22.9536 -22.9471
   -22.9419 -22.9330 -22.9281 -22.9093 -22.8924 -22.8867 -22.8644 -22.8490
   -22.6938 -22.6793 -22.6294 -22.6242 -22.5801 -15.6872 -14.7581 -14.7181
   -14.6606 -14.5796 -14.5627 -14.0726 -13.9800 -13.7983 -13.4768 -13.3948
   -13.3120 -13.2590 -13.1919 -13.1298 -12.9188 -12.7753 -12.5000  -9.4252
    -9.1317  -8.9920  -8.8061  -8.5508  -8.2954  -8.2320  -8.1537  -7.9425
    -6.2574  -6.1571  -5.9583  -5.8834  -5.6234  -5.5888  -5.5753  -5.4791
    -5.4368  -5.4028  -5.2975  -5.2920  -5.2378  -5.1708  -4.9837  -4.8980
    -4.8607  -4.8049  -4.6782  -4.4373  -4.4293  -4.3790  -4.2038  -4.1037
    -3.8780  -3.8473  -3.7733  -3.5842  -3.4679  -3.3261  -3.2144  -3.1022
    -2.9639  -2.8445  -2.6458  -2.6037  -2.5221  -2.4791  -2.3905  -2.3423
    -2.2444  -2.2165  -2.2097  -2.1846  -2.1420  -1.9952  -1.8578  -1.7043
    -1.4863  -1.3571  -1.3164  -1.3060  -1.1571  -0.9317  -0.6085  -0.4350
    -0.4076  -0.3544  -0.2318  -0.0798   0.0449   0.9174   1.1150   1.2729
     1.3310   1.7116   2.0921   2.4002   2.7479   2.9253   3.0023   3.3391
     3.3501   3.4046   3.4807   3.7609

     the Fermi energy is    -1.3263 ev

!    total energy              =   -2867.38086470 Ry
     estimated scf accuracy    <       0.00000009 Ry
     smearing contrib. (-TS)   =      -0.00528318 Ry
     internal energy E=F+TS    =   -2867.37558153 Ry

     The total energy is F=E-TS. E is the sum of the following terms:
     one-electron contribution =   -7556.05370516 Ry
     hartree contribution      =    3838.07611750 Ry
     xc contribution           =    -543.28773571 Ry
     ewald contribution        =    2320.73441112 Ry
     one-center paw contrib.   =    -926.84466928 Ry

     convergence has been achieved in  25 iterations

     negative rho (up, down):  2.517E-02 0.000E+00

     Forces acting on atoms (cartesian axes, Ry/au):

     atom    1 type  2   force =     0.02611323   -0.00164525   -0.01358464
     atom    2 type  2   force =     0.00197329    0.00436478    0.00231125
     atom    3 type  2   force =     0.00176614    0.00390626   -0.00180033
     atom    4 type  2   force =     0.01484379    0.00726305    0.00642760
     atom    5 type  2   force =     0.01462430    0.00709089   -0.00692404
     atom    6 type  2   force =    -0.00187120   -0.00910603    0.00504906
     atom    7 type  2   force =    -0.00199313   -0.00877997   -0.00484001
     atom    8 type  2   force =     0.00183821    0.00146377    0.00060907
     atom    9 type  2   force =     0.02622995   -0.00174721    0.01343000
     atom   10 type  2   force =    -0.00601123    0.00499585    0.00324061
     atom   11 type  2   force =     0.00189951    0.00125828   -0.00066107
     atom   12 type  2   force =    -0.00960602    0.00293909   -0.00238136
     atom   13 type  2   force =    -0.00918790    0.00323619    0.00030393
     atom   14 type  2   force =     0.00024255    0.00501800   -0.00854079
     atom   15 type  2   force =     0.00060704    0.00382017    0.00973043
     atom   16 type  2   force =    -0.00737935   -0.00998227   -0.00062162
     atom   17 type  2   force =    -0.00726432   -0.00998529    0.00105332
     atom   18 type  2   force =    -0.00670219    0.00525229   -0.00504737
     atom   19 type  3   force =    -0.01542317    0.01041797   -0.00041054
     atom   20 type  3   force =     0.00607632    0.00665084    0.00159080
     atom   21 type  3   force =     0.01030100   -0.00816693   -0.00005116
     atom   22 type  3   force =    -0.00206144   -0.00056435    0.00039694
     atom   23 type  3   force =     0.05068333    0.02685705    0.00080061
     atom   24 type  3   force =    -0.00073560   -0.00535121    0.00056333
     atom   25 type  3   force =     0.01260815   -0.08455488   -0.00096438
     atom   26 type  3   force =    -0.01586027   -0.00121607   -0.00016451
     atom   27 type  3   force =    -0.05472277    0.05798448   -0.00061156
     atom   28 type  1   force =    -0.03098819   -0.01141948    0.00109642

     Total force =     0.149905     Total SCF correction =     0.001257


     Computing stress (Cartesian axis) and pressure


     negative rho (up, down):  2.517E-02 0.000E+00
          total   stress  (Ry/bohr**3)                   (kbar)     P=     -391.17
  -0.00261726   0.00001604  -0.00000012         -385.01        2.36       -0.02
   0.00001604  -0.00257414  -0.00000028            2.36     -378.67       -0.04
  -0.00000012  -0.00000028  -0.00278601           -0.02       -0.04     -409.84


     Writing all to output data dir /root/qe_scratch/cand000_A_SnS2_Cu.save/ :
     XML data file, charge density, pseudopotentials, collected wavefunctions
 
     init_run     :     12.38s CPU     16.21s WALL (       1 calls)
     electrons    :    173.41s CPU    213.85s WALL (       1 calls)
     forces       :      0.35s CPU      0.37s WALL (       1 calls)
     stress       :      0.91s CPU      0.95s WALL (       1 calls)

     Called by init_run:
     wfcinit      :      0.35s CPU      0.67s WALL (       1 calls)
     potinit      :     11.06s CPU     14.17s WALL (       1 calls)
     hinit0       :      0.69s CPU      0.86s WALL (       1 calls)

     Called by electrons:
     c_bands      :      7.93s CPU      7.96s WALL (      25 calls)
     sum_band     :      2.57s CPU      2.57s WALL (      25 calls)
     v_of_rho     :      1.91s CPU      2.64s WALL (      26 calls)
     newd         :      1.52s CPU      1.66s WALL (      26 calls)
                                        1.66s GPU  (      26 calls)
     PAW_pot      :    161.53s CPU    201.77s WALL (      26 calls)
     mix_rho      :      1.04s CPU      1.14s WALL (      25 calls)

     Called by c_bands:
     init_us_2    :      0.07s CPU      0.07s WALL (      51 calls)
     cegterg      :      7.70s CPU      7.73s WALL (      25 calls)

     Called by *egterg:
     cdiaghg      :      1.04s CPU      1.13s WALL (     118 calls)
                                        1.13s GPU  (     118 calls)
     h_psi        :      3.50s CPU      3.72s WALL (     119 calls)
                                        3.72s GPU  (     119 calls)
     s_psi        :      0.15s CPU      0.15s WALL (     119 calls)
     g_psi        :      0.00s CPU      0.01s WALL (      93 calls)
                                        0.01s GPU  (      93 calls)

     Called by h_psi:
     h_psi:calbec :      0.10s CPU      1.14s WALL (     119 calls)
                                        1.13s GPU  (     119 calls)
     vloc_psi     :      1.59s CPU      1.62s WALL (     119 calls)
                                        1.62s GPU  (     119 calls)
     add_vuspsi   :      0.14s CPU      0.95s WALL (     119 calls)
                                        0.94s GPU  (     119 calls)

     General routines
     calbec       :      0.10s CPU      0.28s WALL (     149 calls)
     fft          :      5.08s CPU      6.81s WALL (     361 calls)
                                        0.31s GPU  (     335 calls)
     ffts         :      2.28s CPU      2.95s WALL (      51 calls)
                                        0.00s GPU  (      25 calls)
     fftw         :      0.15s CPU      1.63s WALL (    1434 calls)
                                        1.63s GPU  (    1434 calls)
     interpolate  :      7.34s CPU      9.62s WALL (      26 calls)
 
     Parallel routines
 
     PWSCF        :   3m 8.05s CPU   3m52.60s WALL

 
   This run was terminated on:   7:49:13   6May2026            

=------------------------------------------------------------------------------=
   JOB DONE.
=------------------------------------------------------------------------------=
Warning: ieee_invalid is signaling
Warning: ieee_divide_by_zero is signaling
Warning: ieee_inexact is signaling
FORTRAN STOP
