--------------------------------------------------------------------------
WARNING: Open MPI tried to bind a process but failed.  This is a
warning only; your job will continue, though performance may
be degraded.

  Local host:        3253031b5b37
  Application name:  /root/qe-7.3.1/bin/pw.x
  Error message:     failed to bind memory
  Location:          ../../../../../orte/mca/rtc/hwloc/rtc_hwloc.c:447

--------------------------------------------------------------------------

     Program PWSCF v.7.3.1 starts on  7May2026 at  2:38:37 

     This program is part of the open-source Quantum ESPRESSO suite
     for quantum simulation of materials; please cite
         "P. Giannozzi et al., J. Phys.:Condens. Matter 21 395502 (2009);
         "P. Giannozzi et al., J. Phys.:Condens. Matter 29 465901 (2017);
         "P. Giannozzi et al., J. Chem. Phys. 152 154105 (2020);
          URL http://www.quantum-espresso.org", 
     in publications or presentations arising from this work. More details at
     http://www.quantum-espresso.org/quote

     Parallel version (MPI & OpenMP), running on       8 processor cores
     Number of MPI processes:                 1
     Threads/MPI process:                     8

     MPI processes distributed on     1 nodes
     91063 MiB available memory on the printing compute node when the environment starts
 
     Reading input from cand245_A_Pd2Se4_Ti.in

     Current dimensions of program PWSCF are:
     Max number of different atomic species (ntypx) = 10
     Max number of k-points (npk) =  40000
     Max angular momentum in pseudopotentials (lmaxx) =  4
     file Pd.UPF: wavefunction(s)  5S 4D renormalized
     file Ti.UPF: wavefunction(s)  3S 3P 3D renormalized
 
     Subspace diagonalization in iterative solution of the eigenvalue problem:
     a serial algorithm will be used

 
     G-vector sticks info
     --------------------
     sticks:   dense  smooth     PW     G-vecs:    dense   smooth      PW
     Sum        6971    4641   1163               616503   335437   41925
 
     Using Slab Decomposition
 


     bravais-lattice index     =            0
     lattice parameter (alat)  =      21.7336  a.u.
     unit-cell volume          =   15116.8605 (a.u.)^3
     number of atoms/cell      =           25
     number of atomic types    =            3
     number of electrons       =       188.00
     number of Kohn-Sham states=          113
     kinetic-energy cutoff     =      30.0000  Ry
     charge density cutoff     =     180.0000  Ry
     scf convergence threshold =      1.0E-07
     mixing beta               =       0.4000
     number of iterations used =            8  plain     mixing
     Exchange-correlation= SLA  PW   PBX  PBC
                           (   1   4   3   4   0   0   0)

     GPU acceleration is ACTIVE.  1 visible GPUs per MPI rank


     celldm(1)=  21.733591  celldm(2)=   0.000000  celldm(3)=   0.000000
     celldm(4)=   0.000000  celldm(5)=   0.000000  celldm(6)=   0.000000

     crystal axes: (cart. coord. in units of alat)
               a(1) = (   1.000000   0.000000   0.000000 )  
               a(2) = (   0.000000   1.029471   0.000000 )  
               a(3) = (   0.000000   0.000000   1.430385 )  

     reciprocal axes: (cart. coord. in units 2 pi/alat)
               b(1) = (  1.000000  0.000000  0.000000 )  
               b(2) = (  0.000000  0.971372  0.000000 )  
               b(3) = (  0.000000  0.000000  0.699113 )  


     PseudoPot. # 1 for Pd read from file:
     /root/qe_pseudos/Pd.UPF
     MD5 check sum: a1ee5d3c3f0c030a735988cf39041146
     Pseudo is Projector augmented-wave + core cor, Zval = 10.0
     Generated using &quot;atomic&quot; code by A. Dal Corso  v.6.3
     Shape of augmentation charge: PSQ
     Using radial grid of 1235 points,  6 beta functions with: 
                l(1) =   0
                l(2) =   0
                l(3) =   1
                l(4) =   1
                l(5) =   2
                l(6) =   2
     Q(r) pseudized with 0 coefficients 


     PseudoPot. # 2 for Se read from file:
     /root/qe_pseudos/Se.UPF
     MD5 check sum: 8e2a6847b5cb9faee9497ebb573e71ea
     Pseudo is Ultrasoft + core correction, Zval =  6.0
     Generated using &quot;atomic&quot; code by A. Dal Corso  v.6.3
     Using radial grid of 1211 points,  4 beta functions with: 
                l(1) =   0
                l(2) =   0
                l(3) =   1
                l(4) =   1
     Q(r) pseudized with 0 coefficients 


     PseudoPot. # 3 for Ti read from file:
     /root/qe_pseudos/Ti.UPF
     MD5 check sum: 01f69b0d8ba4438b2e03ac6ea4af1c0b
     Pseudo is Projector augmented-wave + core cor, Zval = 12.0
     Generated using &quot;atomic&quot; code by A. Dal Corso  v.6.2.2
     Shape of augmentation charge: PSQ
     Using radial grid of 1177 points,  6 beta functions with: 
                l(1) =   0
                l(2) =   0
                l(3) =   1
                l(4) =   1
                l(5) =   2
                l(6) =   2
     Q(r) pseudized with 0 coefficients 


     atomic species   valence    mass     pseudopotential
     Pd               10.00   106.42000     Pd( 1.00)
     Se                6.00    78.97100     Se( 1.00)
     Ti               12.00    47.86700     Ti( 1.00)

     No symmetry found



   Cartesian axes

     site n.     atom                  positions (alat units)
         1        Pd     tau(   1) = (   0.2484615   1.0279893   0.7200311  )
         2        Pd     tau(   2) = (   0.5003338   0.7718333   0.7154025  )
         3        Pd     tau(   3) = (   0.7498827   0.5146490   0.7152116  )
         4        Pd     tau(   4) = (   0.5013392   0.2576406   0.7196320  )
         5        Pd     tau(   5) = (   1.0003098   0.7724478   0.7150957  )
         6        Pd     tau(   6) = (   0.2491264   0.5154440   0.7144858  )
         7        Pd     tau(   7) = (   0.7496193   1.0294147   0.7153475  )
         8        Pd     tau(   8) = (   0.9987406   0.2585334   0.7145630  )
         9        Se     tau(   9) = (   0.9448965   0.9685577   0.7815897  )
        10        Se     tau(  10) = (   0.8048950   0.7103862   0.7820197  )
        11        Se     tau(  11) = (   0.5543739   0.5757293   0.6488772  )
        12        Se     tau(  12) = (   0.0549723   0.0626383   0.6489357  )
        13        Se     tau(  13) = (   0.6948323   0.3189690   0.6482211  )
        14        Se     tau(  14) = (   0.9451287   0.4539905   0.7818877  )
        15        Se     tau(  15) = (   0.4439470   0.4539776   0.7837275  )
        16        Se     tau(  16) = (   0.5540043   0.0613955   0.6494779  )
        17        Se     tau(  17) = (   0.3119449   0.1889663   0.7921914  )
        18        Se     tau(  18) = (   0.6955749   0.8335496   0.6482832  )
        19        Se     tau(  19) = (   0.1956590   0.8340087   0.6480232  )
        20        Se     tau(  20) = (   0.4457251   0.9663943   0.7833186  )
        21        Se     tau(  21) = (   0.3043922   0.7106793   0.7815240  )
        22        Se     tau(  22) = (   0.0543077   0.5768924   0.6477451  )
        23        Se     tau(  23) = (   0.1944398   0.3193564   0.6541549  )
        24        Se     tau(  24) = (   0.8042049   0.1960126   0.7816288  )
        25        Ti     tau(  25) = (   0.3042380   0.1993453   0.9878299  )

     number of k points=     1  Methfessel-Paxton smearing, width (Ry)=  0.0100
                       cart. coord. in units 2pi/alat
        k(    1) = (   0.0000000   0.0000000   0.0000000), wk =   2.0000000

     Dense  grid:   616503 G-vectors     FFT dimensions: (  96,  96, 135)

     Smooth grid:   335437 G-vectors     FFT dimensions: (  75,  80, 120)

     Estimated max dynamical RAM per process >       2.76 GB

     Check: negative core charge=   -0.000005

     Initial potential from superposition of free atoms

     starting charge     187.9927, renormalised to     188.0000

     negative rho (up, down):  2.824E-02 0.000E+00
     Starting wfcs are  146 randomized atomic wfcs
     Checking if some PAW data can be deallocated... 

     total cpu time spent up to now is       11.8 secs

     Self-consistent Calculation

     iteration #  1     ecut=    30.00 Ry     beta= 0.40
     Davidson diagonalization with overlap
     ethr =  1.00E-02,  avg # of iterations =  2.0

     Threshold (ethr) on eigenvalues was too large:
     Diagonalizing with lowered threshold

     Davidson diagonalization with overlap
     ethr =  6.00E-04,  avg # of iterations =  2.0

     negative rho (up, down):  3.487E-02 0.000E+00

     total cpu time spent up to now is       16.9 secs

     total energy              =   -3165.03760201 Ry
     estimated scf accuracy    <       1.23632103 Ry

     iteration #  2     ecut=    30.00 Ry     beta= 0.40
     Davidson diagonalization with overlap
     ethr =  6.58E-04,  avg # of iterations =  4.0

     negative rho (up, down):  7.342E-02 0.000E+00

     total cpu time spent up to now is       21.7 secs

     total energy              =   -3163.86538676 Ry
     estimated scf accuracy    <      34.81331596 Ry

     iteration #  3     ecut=    30.00 Ry     beta= 0.40
     Davidson diagonalization with overlap
     ethr =  6.58E-04,  avg # of iterations =  2.0

     negative rho (up, down):  7.964E-02 0.000E+00

     total cpu time spent up to now is       26.4 secs

     total energy              =   -3165.22379941 Ry
     estimated scf accuracy    <       2.26911556 Ry

     iteration #  4     ecut=    30.00 Ry     beta= 0.40
     Davidson diagonalization with overlap
     ethr =  6.58E-04,  avg # of iterations =  5.0

     negative rho (up, down):  1.288E-01 0.000E+00

     total cpu time spent up to now is       31.4 secs

     total energy              =   -3165.38061832 Ry
     estimated scf accuracy    <       0.48758545 Ry

     iteration #  5     ecut=    30.00 Ry     beta= 0.40
     Davidson diagonalization with overlap
     ethr =  2.59E-04,  avg # of iterations =  2.0

     negative rho (up, down):  2.011E-01 0.000E+00

     total cpu time spent up to now is       36.2 secs

     total energy              =   -3165.40861775 Ry
     estimated scf accuracy    <       0.13407313 Ry

     iteration #  6     ecut=    30.00 Ry     beta= 0.40
     Davidson diagonalization with overlap
     ethr =  7.13E-05,  avg # of iterations =  2.0

     negative rho (up, down):  2.875E-01 0.000E+00

     total cpu time spent up to now is       40.9 secs

     total energy              =   -3165.42814479 Ry
     estimated scf accuracy    <       0.05015358 Ry

     iteration #  7     ecut=    30.00 Ry     beta= 0.40
     Davidson diagonalization with overlap
     ethr =  2.67E-05,  avg # of iterations = 12.0

     negative rho (up, down):  3.869E-01 0.000E+00

     total cpu time spent up to now is       46.0 secs

     total energy              =   -3165.44317536 Ry
     estimated scf accuracy    <       0.01211172 Ry

     iteration #  8     ecut=    30.00 Ry     beta= 0.40
     Davidson diagonalization with overlap
     ethr =  6.44E-06,  avg # of iterations =  4.0

     negative rho (up, down):  4.854E-01 0.000E+00

     total cpu time spent up to now is       50.8 secs

     total energy              =   -3165.45025123 Ry
     estimated scf accuracy    <       0.00973399 Ry

     iteration #  9     ecut=    30.00 Ry     beta= 0.40
     Davidson diagonalization with overlap
     ethr =  5.18E-06,  avg # of iterations =  2.0

     negative rho (up, down):  5.722E-01 0.000E+00

     total cpu time spent up to now is       55.6 secs

     total energy              =   -3165.45412960 Ry
     estimated scf accuracy    <       0.00566440 Ry

     iteration # 10     ecut=    30.00 Ry     beta= 0.40
     Davidson diagonalization with overlap
     ethr =  3.01E-06,  avg # of iterations =  2.0

     negative rho (up, down):  6.433E-01 0.000E+00

     total cpu time spent up to now is       60.4 secs

     total energy              =   -3165.45573615 Ry
     estimated scf accuracy    <       0.00186092 Ry

     iteration # 11     ecut=    30.00 Ry     beta= 0.40
     Davidson diagonalization with overlap
     ethr =  9.90E-07,  avg # of iterations =  6.0

     negative rho (up, down):  6.895E-01 0.000E+00

     total cpu time spent up to now is       65.3 secs

     total energy              =   -3165.45757429 Ry
     estimated scf accuracy    <       0.00123471 Ry

     iteration # 12     ecut=    30.00 Ry     beta= 0.40
     Davidson diagonalization with overlap
     ethr =  6.57E-07,  avg # of iterations =  3.0

     negative rho (up, down):  7.259E-01 0.000E+00

     total cpu time spent up to now is       70.2 secs

     total energy              =   -3165.45861412 Ry
     estimated scf accuracy    <       0.00080944 Ry

     iteration # 13     ecut=    30.00 Ry     beta= 0.40
     Davidson diagonalization with overlap
     ethr =  4.31E-07,  avg # of iterations =  2.0

     negative rho (up, down):  7.523E-01 0.000E+00

     total cpu time spent up to now is       75.0 secs

     total energy              =   -3165.45950500 Ry
     estimated scf accuracy    <       0.00056178 Ry

     iteration # 14     ecut=    30.00 Ry     beta= 0.40
     Davidson diagonalization with overlap
     ethr =  2.99E-07,  avg # of iterations =  3.0

     negative rho (up, down):  7.730E-01 0.000E+00

     total cpu time spent up to now is       79.8 secs

     total energy              =   -3165.45996299 Ry
     estimated scf accuracy    <       0.00088842 Ry

     iteration # 15     ecut=    30.00 Ry     beta= 0.40
     Davidson diagonalization with overlap
     ethr =  2.99E-07,  avg # of iterations =  2.0

     negative rho (up, down):  7.881E-01 0.000E+00

     total cpu time spent up to now is       84.5 secs

     total energy              =   -3165.46029390 Ry
     estimated scf accuracy    <       0.00018860 Ry

     iteration # 16     ecut=    30.00 Ry     beta= 0.40
     Davidson diagonalization with overlap
     ethr =  1.00E-07,  avg # of iterations =  4.0

     negative rho (up, down):  7.980E-01 0.000E+00

     total cpu time spent up to now is       89.3 secs

     total energy              =   -3165.46067364 Ry
     estimated scf accuracy    <       0.00010039 Ry

     iteration # 17     ecut=    30.00 Ry     beta= 0.40
     Davidson diagonalization with overlap
     ethr =  5.34E-08,  avg # of iterations =  4.0

     negative rho (up, down):  8.051E-01 0.000E+00

     total cpu time spent up to now is       94.1 secs

     total energy              =   -3165.46095196 Ry
     estimated scf accuracy    <       0.00009510 Ry

     iteration # 18     ecut=    30.00 Ry     beta= 0.40
     Davidson diagonalization with overlap
     ethr =  5.06E-08,  avg # of iterations =  3.0

     negative rho (up, down):  8.122E-01 0.000E+00

     total cpu time spent up to now is       98.9 secs

     total energy              =   -3165.46052086 Ry
     estimated scf accuracy    <       0.00010539 Ry

     iteration # 19     ecut=    30.00 Ry     beta= 0.40
     Davidson diagonalization with overlap
     ethr =  5.06E-08,  avg # of iterations =  4.0

     negative rho (up, down):  8.124E-01 0.000E+00

     total cpu time spent up to now is      103.8 secs

     total energy              =   -3165.46184641 Ry
     estimated scf accuracy    <       0.00002941 Ry

     iteration # 20     ecut=    30.00 Ry     beta= 0.40
     Davidson diagonalization with overlap
     ethr =  1.56E-08,  avg # of iterations =  5.0

     negative rho (up, down):  8.146E-01 0.000E+00

     total cpu time spent up to now is      108.6 secs

     total energy              =   -3165.46223474 Ry
     estimated scf accuracy    <       0.00013279 Ry

     iteration # 21     ecut=    30.00 Ry     beta= 0.40
     Davidson diagonalization with overlap
     ethr =  1.56E-08,  avg # of iterations =  4.0

     negative rho (up, down):  8.152E-01 0.000E+00

     total cpu time spent up to now is      113.3 secs

     total energy              =   -3165.46291085 Ry
     estimated scf accuracy    <       0.00014102 Ry

     iteration # 22     ecut=    30.00 Ry     beta= 0.40
     Davidson diagonalization with overlap
     ethr =  1.56E-08,  avg # of iterations =  4.0

     negative rho (up, down):  8.146E-01 0.000E+00

     total cpu time spent up to now is      118.1 secs

     total energy              =   -3165.46372587 Ry
     estimated scf accuracy    <       0.00015771 Ry

     iteration # 23     ecut=    30.00 Ry     beta= 0.40
     Davidson diagonalization with overlap
     ethr =  1.56E-08,  avg # of iterations =  5.0

     negative rho (up, down):  8.130E-01 0.000E+00

     total cpu time spent up to now is      123.1 secs

     total energy              =   -3165.46448066 Ry
     estimated scf accuracy    <       0.00080843 Ry

     iteration # 24     ecut=    30.00 Ry     beta= 0.40
     Davidson diagonalization with overlap
     ethr =  1.56E-08,  avg # of iterations =  4.0

     negative rho (up, down):  8.106E-01 0.000E+00

     total cpu time spent up to now is      127.8 secs

     total energy              =   -3165.46532097 Ry
     estimated scf accuracy    <       0.00105718 Ry

     iteration # 25     ecut=    30.00 Ry     beta= 0.40
     Davidson diagonalization with overlap
     ethr =  1.56E-08,  avg # of iterations =  4.0

     negative rho (up, down):  8.093E-01 0.000E+00

     total cpu time spent up to now is      132.6 secs

     total energy              =   -3165.46577732 Ry
     estimated scf accuracy    <       0.00115810 Ry

     iteration # 26     ecut=    30.00 Ry     beta= 0.40
     Davidson diagonalization with overlap
     ethr =  1.56E-08,  avg # of iterations =  4.0

     negative rho (up, down):  8.108E-01 0.000E+00

     total cpu time spent up to now is      137.3 secs

     total energy              =   -3165.46520142 Ry
     estimated scf accuracy    <       0.00168111 Ry

     iteration # 27     ecut=    30.00 Ry     beta= 0.40
     Davidson diagonalization with overlap
     ethr =  1.56E-08,  avg # of iterations =  5.0

     negative rho (up, down):  8.106E-01 0.000E+00

     total cpu time spent up to now is      142.2 secs

     total energy              =   -3165.46486501 Ry
     estimated scf accuracy    <       0.00285004 Ry

     iteration # 28     ecut=    30.00 Ry     beta= 0.40
     Davidson diagonalization with overlap
     ethr =  1.56E-08,  avg # of iterations =  4.0

     negative rho (up, down):  8.065E-01 0.000E+00

     total cpu time spent up to now is      147.3 secs

     total energy              =   -3165.46555874 Ry
     estimated scf accuracy    <       0.00378677 Ry

     iteration # 29     ecut=    30.00 Ry     beta= 0.40
     Davidson diagonalization with overlap
     ethr =  1.56E-08,  avg # of iterations =  5.0

     negative rho (up, down):  8.172E-01 0.000E+00

     total cpu time spent up to now is      152.2 secs

     total energy              =   -3165.46231357 Ry
     estimated scf accuracy    <       0.00415450 Ry

     iteration # 30     ecut=    30.00 Ry     beta= 0.40
     Davidson diagonalization with overlap
     ethr =  1.56E-08,  avg # of iterations =  5.0

     negative rho (up, down):  8.267E-01 0.000E+00

     total cpu time spent up to now is      157.0 secs

     total energy              =   -3165.45924488 Ry
     estimated scf accuracy    <       0.00668019 Ry

     iteration # 31     ecut=    30.00 Ry     beta= 0.40
     Davidson diagonalization with overlap
     ethr =  1.56E-08,  avg # of iterations =  5.0

     negative rho (up, down):  9.065E-01 0.000E+00

     total cpu time spent up to now is      161.9 secs

     total energy              =   -3165.44039184 Ry
     estimated scf accuracy    <       0.00885130 Ry

     iteration # 32     ecut=    30.00 Ry     beta= 0.40
     Davidson diagonalization with overlap
     ethr =  1.56E-08,  avg # of iterations =  7.0

     negative rho (up, down):  8.870E-01 0.000E+00

     total cpu time spent up to now is      166.8 secs

     total energy              =   -3165.44182276 Ry
     estimated scf accuracy    <       0.01766715 Ry

     iteration # 33     ecut=    30.00 Ry     beta= 0.40
     Davidson diagonalization with overlap
     ethr =  1.56E-08,  avg # of iterations =  4.0

     negative rho (up, down):  8.653E-01 0.000E+00

     total cpu time spent up to now is      171.6 secs

     total energy              =   -3165.44398868 Ry
     estimated scf accuracy    <       0.01721209 Ry

     iteration # 34     ecut=    30.00 Ry     beta= 0.40
     Davidson diagonalization with overlap
     ethr =  1.56E-08,  avg # of iterations =  4.0

     negative rho (up, down):  8.500E-01 0.000E+00

     total cpu time spent up to now is      176.4 secs

     total energy              =   -3165.44586060 Ry
     estimated scf accuracy    <       0.01612351 Ry

     iteration # 35     ecut=    30.00 Ry     beta= 0.40
     Davidson diagonalization with overlap
     ethr =  1.56E-08,  avg # of iterations =  4.0

     negative rho (up, down):  8.140E-01 0.000E+00

     total cpu time spent up to now is      181.1 secs

     total energy              =   -3165.45419318 Ry
     estimated scf accuracy    <       0.01505665 Ry

     iteration # 36     ecut=    30.00 Ry     beta= 0.40
     Davidson diagonalization with overlap
     ethr =  1.56E-08,  avg # of iterations =  6.0

     negative rho (up, down):  7.924E-01 0.000E+00

     total cpu time spent up to now is      186.0 secs

     total energy              =   -3165.45964380 Ry
     estimated scf accuracy    <       0.01435692 Ry

     iteration # 37     ecut=    30.00 Ry     beta= 0.40
     Davidson diagonalization with overlap
     ethr =  1.56E-08,  avg # of iterations =  5.0

     negative rho (up, down):  7.789E-01 0.000E+00

     total cpu time spent up to now is      190.9 secs

     total energy              =   -3165.46334265 Ry
     estimated scf accuracy    <       0.01158995 Ry

     iteration # 38     ecut=    30.00 Ry     beta= 0.40
     Davidson diagonalization with overlap
     ethr =  1.56E-08,  avg # of iterations =  4.0

     negative rho (up, down):  7.392E-01 0.000E+00

     total cpu time spent up to now is      195.8 secs

     total energy              =   -3165.47182108 Ry
     estimated scf accuracy    <       0.01023660 Ry

     iteration # 39     ecut=    30.00 Ry     beta= 0.40
     Davidson diagonalization with overlap
     ethr =  1.56E-08,  avg # of iterations =  6.0

     negative rho (up, down):  7.393E-01 0.000E+00

     total cpu time spent up to now is      200.7 secs

     total energy              =   -3165.47490483 Ry
     estimated scf accuracy    <       0.00466102 Ry

     iteration # 40     ecut=    30.00 Ry     beta= 0.40
     Davidson diagonalization with overlap
     ethr =  1.56E-08,  avg # of iterations =  6.0

     negative rho (up, down):  7.288E-01 0.000E+00

     total cpu time spent up to now is      205.6 secs

     total energy              =   -3165.47732242 Ry
     estimated scf accuracy    <       0.00444953 Ry

     iteration # 41     ecut=    30.00 Ry     beta= 0.40
     Davidson diagonalization with overlap
     ethr =  1.56E-08,  avg # of iterations =  6.0

     negative rho (up, down):  7.390E-01 0.000E+00

     total cpu time spent up to now is      210.7 secs

     total energy              =   -3165.47667473 Ry
     estimated scf accuracy    <       0.00287864 Ry

     iteration # 42     ecut=    30.00 Ry     beta= 0.40
     Davidson diagonalization with overlap
     ethr =  1.56E-08,  avg # of iterations =  7.0

     negative rho (up, down):  7.402E-01 0.000E+00

     total cpu time spent up to now is      215.7 secs

     total energy              =   -3165.47972329 Ry
     estimated scf accuracy    <       0.00316354 Ry

     iteration # 43     ecut=    30.00 Ry     beta= 0.40
     Davidson diagonalization with overlap
     ethr =  1.56E-08,  avg # of iterations =  5.0

     negative rho (up, down):  7.481E-01 0.000E+00

     total cpu time spent up to now is      220.6 secs

     total energy              =   -3165.48064329 Ry
     estimated scf accuracy    <       0.00096603 Ry

     iteration # 44     ecut=    30.00 Ry     beta= 0.40
     Davidson diagonalization with overlap
     ethr =  1.56E-08,  avg # of iterations =  5.0

     negative rho (up, down):  7.523E-01 0.000E+00

     total cpu time spent up to now is      225.6 secs

     total energy              =   -3165.48092575 Ry
     estimated scf accuracy    <       0.00060615 Ry

     iteration # 45     ecut=    30.00 Ry     beta= 0.40
     Davidson diagonalization with overlap
     ethr =  1.56E-08,  avg # of iterations =  5.0

     negative rho (up, down):  7.584E-01 0.000E+00

     total cpu time spent up to now is      230.5 secs

     total energy              =   -3165.48073765 Ry
     estimated scf accuracy    <       0.00061455 Ry

     iteration # 46     ecut=    30.00 Ry     beta= 0.40
     Davidson diagonalization with overlap
     ethr =  1.56E-08,  avg # of iterations =  5.0

     negative rho (up, down):  7.586E-01 0.000E+00

     total cpu time spent up to now is      235.5 secs

     total energy              =   -3165.48122855 Ry
     estimated scf accuracy    <       0.00006471 Ry

     iteration # 47     ecut=    30.00 Ry     beta= 0.40
     Davidson diagonalization with overlap
     ethr =  1.56E-08,  avg # of iterations =  4.0

     negative rho (up, down):  7.585E-01 0.000E+00

     total cpu time spent up to now is      240.3 secs

     total energy              =   -3165.48184322 Ry
     estimated scf accuracy    <       0.00002734 Ry

     iteration # 48     ecut=    30.00 Ry     beta= 0.40
     Davidson diagonalization with overlap
     ethr =  1.45E-08,  avg # of iterations =  4.0

     negative rho (up, down):  7.589E-01 0.000E+00

     total cpu time spent up to now is      245.2 secs

     total energy              =   -3165.48223043 Ry
     estimated scf accuracy    <       0.00006462 Ry

     iteration # 49     ecut=    30.00 Ry     beta= 0.40
     Davidson diagonalization with overlap
     ethr =  1.45E-08,  avg # of iterations =  5.0

     negative rho (up, down):  7.596E-01 0.000E+00

     total cpu time spent up to now is      250.1 secs

     total energy              =   -3165.48240861 Ry
     estimated scf accuracy    <       0.00011008 Ry

     iteration # 50     ecut=    30.00 Ry     beta= 0.40
     Davidson diagonalization with overlap
     ethr =  1.45E-08,  avg # of iterations =  5.0

     negative rho (up, down):  7.630E-01 0.000E+00

     total cpu time spent up to now is      254.8 secs

     total energy              =   -3165.48191310 Ry
     estimated scf accuracy    <       0.00051543 Ry

     iteration # 51     ecut=    30.00 Ry     beta= 0.40
     Davidson diagonalization with overlap
     ethr =  1.45E-08,  avg # of iterations =  5.0

     negative rho (up, down):  7.654E-01 0.000E+00

     total cpu time spent up to now is      259.7 secs

     total energy              =   -3165.48148024 Ry
     estimated scf accuracy    <       0.00106964 Ry

     iteration # 52     ecut=    30.00 Ry     beta= 0.40
     Davidson diagonalization with overlap
     ethr =  1.45E-08,  avg # of iterations =  5.0

     negative rho (up, down):  7.683E-01 0.000E+00

     total cpu time spent up to now is      264.6 secs

     total energy              =   -3165.48075794 Ry
     estimated scf accuracy    <       0.00145364 Ry

     iteration # 53     ecut=    30.00 Ry     beta= 0.40
     Davidson diagonalization with overlap
     ethr =  1.45E-08,  avg # of iterations =  5.0

     negative rho (up, down):  7.694E-01 0.000E+00

     total cpu time spent up to now is      269.5 secs

     total energy              =   -3165.48033822 Ry
     estimated scf accuracy    <       0.00194877 Ry

     iteration # 54     ecut=    30.00 Ry     beta= 0.40
     Davidson diagonalization with overlap
     ethr =  1.45E-08,  avg # of iterations =  5.0

     negative rho (up, down):  7.635E-01 0.000E+00

     total cpu time spent up to now is      274.4 secs

     total energy              =   -3165.48148553 Ry
     estimated scf accuracy    <       0.00222135 Ry

     iteration # 55     ecut=    30.00 Ry     beta= 0.40
     Davidson diagonalization with overlap
     ethr =  1.45E-08,  avg # of iterations =  5.0

     negative rho (up, down):  7.617E-01 0.000E+00

     total cpu time spent up to now is      279.3 secs

     total energy              =   -3165.48187192 Ry
     estimated scf accuracy    <       0.00152256 Ry

     iteration # 56     ecut=    30.00 Ry     beta= 0.40
     Davidson diagonalization with overlap
     ethr =  1.45E-08,  avg # of iterations =  3.0

     negative rho (up, down):  7.607E-01 0.000E+00

     total cpu time spent up to now is      284.1 secs

     total energy              =   -3165.48214192 Ry
     estimated scf accuracy    <       0.00138565 Ry

     iteration # 57     ecut=    30.00 Ry     beta= 0.40
     Davidson diagonalization with overlap
     ethr =  1.45E-08,  avg # of iterations =  3.0

     negative rho (up, down):  7.605E-01 0.000E+00

     total cpu time spent up to now is      288.8 secs

     total energy              =   -3165.48225387 Ry
     estimated scf accuracy    <       0.00124117 Ry

     iteration # 58     ecut=    30.00 Ry     beta= 0.40
     Davidson diagonalization with overlap
     ethr =  1.45E-08,  avg # of iterations =  4.0

     negative rho (up, down):  7.636E-01 0.000E+00

     total cpu time spent up to now is      293.6 secs

     total energy              =   -3165.48158488 Ry
     estimated scf accuracy    <       0.00123891 Ry

     iteration # 59     ecut=    30.00 Ry     beta= 0.40
     Davidson diagonalization with overlap
     ethr =  1.45E-08,  avg # of iterations =  4.0

     negative rho (up, down):  7.581E-01 0.000E+00

     total cpu time spent up to now is      298.4 secs

     total energy              =   -3165.48269431 Ry
     estimated scf accuracy    <       0.00167947 Ry

     iteration # 60     ecut=    30.00 Ry     beta= 0.40
     Davidson diagonalization with overlap
     ethr =  1.45E-08,  avg # of iterations =  5.0

     negative rho (up, down):  7.547E-01 0.000E+00

     total cpu time spent up to now is      303.3 secs

     total energy              =   -3165.48354843 Ry
     estimated scf accuracy    <       0.00105908 Ry

     iteration # 61     ecut=    30.00 Ry     beta= 0.40
     Davidson diagonalization with overlap
     ethr =  1.45E-08,  avg # of iterations =  5.0

     negative rho (up, down):  7.540E-01 0.000E+00

     total cpu time spent up to now is      308.1 secs

     total energy              =   -3165.48394973 Ry
     estimated scf accuracy    <       0.00056898 Ry

     iteration # 62     ecut=    30.00 Ry     beta= 0.40
     Davidson diagonalization with overlap
     ethr =  1.45E-08,  avg # of iterations =  3.0

     negative rho (up, down):  7.551E-01 0.000E+00

     total cpu time spent up to now is      312.9 secs

     total energy              =   -3165.48390601 Ry
     estimated scf accuracy    <       0.00038693 Ry

     iteration # 63     ecut=    30.00 Ry     beta= 0.40
     Davidson diagonalization with overlap
     ethr =  1.45E-08,  avg # of iterations =  4.0

     negative rho (up, down):  7.564E-01 0.000E+00

     total cpu time spent up to now is      317.7 secs

     total energy              =   -3165.48383434 Ry
     estimated scf accuracy    <       0.00045798 Ry

     iteration # 64     ecut=    30.00 Ry     beta= 0.40
     Davidson diagonalization with overlap
     ethr =  1.45E-08,  avg # of iterations =  3.0

     negative rho (up, down):  7.577E-01 0.000E+00

     total cpu time spent up to now is      322.5 secs

     total energy              =   -3165.48366825 Ry
     estimated scf accuracy    <       0.00056456 Ry

     iteration # 65     ecut=    30.00 Ry     beta= 0.40
     Davidson diagonalization with overlap
     ethr =  1.45E-08,  avg # of iterations =  4.0

     negative rho (up, down):  7.581E-01 0.000E+00

     total cpu time spent up to now is      327.4 secs

     total energy              =   -3165.48364224 Ry
     estimated scf accuracy    <       0.00073945 Ry

     iteration # 66     ecut=    30.00 Ry     beta= 0.40
     Davidson diagonalization with overlap
     ethr =  1.45E-08,  avg # of iterations =  3.0

     negative rho (up, down):  7.589E-01 0.000E+00

     total cpu time spent up to now is      332.1 secs

     total energy              =   -3165.48349471 Ry
     estimated scf accuracy    <       0.00082809 Ry

     iteration # 67     ecut=    30.00 Ry     beta= 0.40
     Davidson diagonalization with overlap
     ethr =  1.45E-08,  avg # of iterations =  4.0

     negative rho (up, down):  7.582E-01 0.000E+00

     total cpu time spent up to now is      337.0 secs

     total energy              =   -3165.48360212 Ry
     estimated scf accuracy    <       0.00096730 Ry

     iteration # 68     ecut=    30.00 Ry     beta= 0.40
     Davidson diagonalization with overlap
     ethr =  1.45E-08,  avg # of iterations =  3.0

     negative rho (up, down):  7.595E-01 0.000E+00

     total cpu time spent up to now is      341.7 secs

     total energy              =   -3165.48330704 Ry
     estimated scf accuracy    <       0.00102017 Ry

     iteration # 69     ecut=    30.00 Ry     beta= 0.40
     Davidson diagonalization with overlap
     ethr =  1.45E-08,  avg # of iterations =  4.0

     negative rho (up, down):  7.610E-01 0.000E+00

     total cpu time spent up to now is      346.6 secs

     total energy              =   -3165.48296641 Ry
     estimated scf accuracy    <       0.00119199 Ry

     iteration # 70     ecut=    30.00 Ry     beta= 0.40
     Davidson diagonalization with overlap
     ethr =  1.45E-08,  avg # of iterations =  3.0

     negative rho (up, down):  7.657E-01 0.000E+00

     total cpu time spent up to now is      351.4 secs

     total energy              =   -3165.48180416 Ry
     estimated scf accuracy    <       0.00142893 Ry

     iteration # 71     ecut=    30.00 Ry     beta= 0.40
     Davidson diagonalization with overlap
     ethr =  1.45E-08,  avg # of iterations =  5.0

     negative rho (up, down):  7.625E-01 0.000E+00

     total cpu time spent up to now is      356.3 secs

     total energy              =   -3165.48238762 Ry
     estimated scf accuracy    <       0.00216274 Ry

     iteration # 72     ecut=    30.00 Ry     beta= 0.40
     Davidson diagonalization with overlap
     ethr =  1.45E-08,  avg # of iterations =  3.0

     negative rho (up, down):  7.584E-01 0.000E+00

     total cpu time spent up to now is      361.0 secs

     total energy              =   -3165.48329708 Ry
     estimated scf accuracy    <       0.00184320 Ry

     iteration # 73     ecut=    30.00 Ry     beta= 0.40
     Davidson diagonalization with overlap
     ethr =  1.45E-08,  avg # of iterations =  3.0

     negative rho (up, down):  7.566E-01 0.000E+00

     total cpu time spent up to now is      365.8 secs

     total energy              =   -3165.48378757 Ry
     estimated scf accuracy    <       0.00129551 Ry

     iteration # 74     ecut=    30.00 Ry     beta= 0.40
     Davidson diagonalization with overlap
     ethr =  1.45E-08,  avg # of iterations =  3.0

     negative rho (up, down):  7.571E-01 0.000E+00

     total cpu time spent up to now is      370.6 secs

     total energy              =   -3165.48374651 Ry
     estimated scf accuracy    <       0.00108498 Ry

     iteration # 75     ecut=    30.00 Ry     beta= 0.40
     Davidson diagonalization with overlap
     ethr =  1.45E-08,  avg # of iterations =  3.0

     negative rho (up, down):  7.576E-01 0.000E+00

     total cpu time spent up to now is      375.4 secs

     total energy              =   -3165.48366442 Ry
     estimated scf accuracy    <       0.00107869 Ry

     iteration # 76     ecut=    30.00 Ry     beta= 0.40
     Davidson diagonalization with overlap
     ethr =  1.45E-08,  avg # of iterations =  3.0

     negative rho (up, down):  7.574E-01 0.000E+00

     total cpu time spent up to now is      380.2 secs

     total energy              =   -3165.48366694 Ry
     estimated scf accuracy    <       0.00121855 Ry

     iteration # 77     ecut=    30.00 Ry     beta= 0.40
     Davidson diagonalization with overlap
     ethr =  1.45E-08,  avg # of iterations =  3.0

     negative rho (up, down):  7.579E-01 0.000E+00

     total cpu time spent up to now is      385.0 secs

     total energy              =   -3165.48352772 Ry
     estimated scf accuracy    <       0.00119206 Ry

     iteration # 78     ecut=    30.00 Ry     beta= 0.40
     Davidson diagonalization with overlap
     ethr =  1.45E-08,  avg # of iterations =  3.0

     negative rho (up, down):  7.559E-01 0.000E+00

     total cpu time spent up to now is      389.8 secs

     total energy              =   -3165.48400736 Ry
     estimated scf accuracy    <       0.00136598 Ry

     iteration # 79     ecut=    30.00 Ry     beta= 0.40
     Davidson diagonalization with overlap
     ethr =  1.45E-08,  avg # of iterations =  4.0

     negative rho (up, down):  7.540E-01 0.000E+00

     total cpu time spent up to now is      394.6 secs

     total energy              =   -3165.48443839 Ry
     estimated scf accuracy    <       0.00114825 Ry

     iteration # 80     ecut=    30.00 Ry     beta= 0.40
     Davidson diagonalization with overlap
     ethr =  1.45E-08,  avg # of iterations =  3.0

     negative rho (up, down):  7.546E-01 0.000E+00

     total cpu time spent up to now is      399.4 secs

     total energy              =   -3165.48440457 Ry
     estimated scf accuracy    <       0.00077842 Ry

     iteration # 81     ecut=    30.00 Ry     beta= 0.40
     Davidson diagonalization with overlap
     ethr =  1.45E-08,  avg # of iterations =  3.0

     negative rho (up, down):  7.531E-01 0.000E+00

     total cpu time spent up to now is      404.1 secs

     total energy              =   -3165.48486232 Ry
     estimated scf accuracy    <       0.00079261 Ry

     iteration # 82     ecut=    30.00 Ry     beta= 0.40
     Davidson diagonalization with overlap
     ethr =  1.45E-08,  avg # of iterations =  5.0

     negative rho (up, down):  7.542E-01 0.000E+00

     total cpu time spent up to now is      409.0 secs

     total energy              =   -3165.48495938 Ry
     estimated scf accuracy    <       0.00049139 Ry

     iteration # 83     ecut=    30.00 Ry     beta= 0.40
     Davidson diagonalization with overlap
     ethr =  1.45E-08,  avg # of iterations =  4.0

     negative rho (up, down):  7.553E-01 0.000E+00

     total cpu time spent up to now is      413.8 secs

     total energy              =   -3165.48508755 Ry
     estimated scf accuracy    <       0.00025016 Ry

     iteration # 84     ecut=    30.00 Ry     beta= 0.40
     Davidson diagonalization with overlap
     ethr =  1.45E-08,  avg # of iterations =  4.0

     negative rho (up, down):  7.563E-01 0.000E+00

     total cpu time spent up to now is      418.6 secs

     total energy              =   -3165.48511939 Ry
     estimated scf accuracy    <       0.00003027 Ry

     iteration # 85     ecut=    30.00 Ry     beta= 0.40
     Davidson diagonalization with overlap
     ethr =  1.45E-08,  avg # of iterations =  3.0

     negative rho (up, down):  7.574E-01 0.000E+00

     total cpu time spent up to now is      423.5 secs

     total energy              =   -3165.48515778 Ry
     estimated scf accuracy    <       0.00006208 Ry

     iteration # 86     ecut=    30.00 Ry     beta= 0.40
     Davidson diagonalization with overlap
     ethr =  1.45E-08,  avg # of iterations =  3.0

     negative rho (up, down):  7.583E-01 0.000E+00

     total cpu time spent up to now is      428.3 secs

     total energy              =   -3165.48519411 Ry
     estimated scf accuracy    <       0.00000748 Ry

     iteration # 87     ecut=    30.00 Ry     beta= 0.40
     Davidson diagonalization with overlap
     ethr =  3.98E-09,  avg # of iterations =  5.0

     negative rho (up, down):  7.592E-01 0.000E+00

     total cpu time spent up to now is      433.2 secs

     total energy              =   -3165.48520965 Ry
     estimated scf accuracy    <       0.00001247 Ry

     iteration # 88     ecut=    30.00 Ry     beta= 0.40
     Davidson diagonalization with overlap
     ethr =  3.98E-09,  avg # of iterations =  3.0

     negative rho (up, down):  7.598E-01 0.000E+00

     total cpu time spent up to now is      438.0 secs

     total energy              =   -3165.48523371 Ry
     estimated scf accuracy    <       0.00001002 Ry

     iteration # 89     ecut=    30.00 Ry     beta= 0.40
     Davidson diagonalization with overlap
     ethr =  3.98E-09,  avg # of iterations =  3.0

     negative rho (up, down):  7.602E-01 0.000E+00

     total cpu time spent up to now is      442.7 secs

     total energy              =   -3165.48524667 Ry
     estimated scf accuracy    <       0.00001401 Ry

     iteration # 90     ecut=    30.00 Ry     beta= 0.40
     Davidson diagonalization with overlap
     ethr =  3.98E-09,  avg # of iterations =  3.0

     negative rho (up, down):  7.606E-01 0.000E+00

     total cpu time spent up to now is      447.5 secs

     total energy              =   -3165.48526682 Ry
     estimated scf accuracy    <       0.00001025 Ry

     iteration # 91     ecut=    30.00 Ry     beta= 0.40
     Davidson diagonalization with overlap
     ethr =  3.98E-09,  avg # of iterations =  4.0

     negative rho (up, down):  7.608E-01 0.000E+00

     total cpu time spent up to now is      452.4 secs

     total energy              =   -3165.48528404 Ry
     estimated scf accuracy    <       0.00001461 Ry

     iteration # 92     ecut=    30.00 Ry     beta= 0.40
     Davidson diagonalization with overlap
     ethr =  3.98E-09,  avg # of iterations =  3.0

     negative rho (up, down):  7.611E-01 0.000E+00

     total cpu time spent up to now is      457.1 secs

     total energy              =   -3165.48522338 Ry
     estimated scf accuracy    <       0.00003050 Ry

     iteration # 93     ecut=    30.00 Ry     beta= 0.40
     Davidson diagonalization with overlap
     ethr =  3.98E-09,  avg # of iterations =  5.0

     negative rho (up, down):  7.616E-01 0.000E+00

     total cpu time spent up to now is      462.0 secs

     total energy              =   -3165.48511979 Ry
     estimated scf accuracy    <       0.00015210 Ry

     iteration # 94     ecut=    30.00 Ry     beta= 0.40
     Davidson diagonalization with overlap
     ethr =  3.98E-09,  avg # of iterations =  3.0

     negative rho (up, down):  7.621E-01 0.000E+00

     total cpu time spent up to now is      466.7 secs

     total energy              =   -3165.48496971 Ry
     estimated scf accuracy    <       0.00027181 Ry

     iteration # 95     ecut=    30.00 Ry     beta= 0.40
     Davidson diagonalization with overlap
     ethr =  3.98E-09,  avg # of iterations =  5.0

     negative rho (up, down):  7.622E-01 0.000E+00

     total cpu time spent up to now is      471.5 secs

     total energy              =   -3165.48493710 Ry
     estimated scf accuracy    <       0.00041787 Ry

     iteration # 96     ecut=    30.00 Ry     beta= 0.40
     Davidson diagonalization with overlap
     ethr =  3.98E-09,  avg # of iterations =  3.0

     negative rho (up, down):  7.623E-01 0.000E+00

     total cpu time spent up to now is      476.3 secs

     total energy              =   -3165.48489929 Ry
     estimated scf accuracy    <       0.00044925 Ry

     iteration # 97     ecut=    30.00 Ry     beta= 0.40
     Davidson diagonalization with overlap
     ethr =  3.98E-09,  avg # of iterations =  3.0

     negative rho (up, down):  7.627E-01 0.000E+00

     total cpu time spent up to now is      481.0 secs

     total energy              =   -3165.48474831 Ry
     estimated scf accuracy    <       0.00048019 Ry

     iteration # 98     ecut=    30.00 Ry     beta= 0.40
     Davidson diagonalization with overlap
     ethr =  3.98E-09,  avg # of iterations =  4.0

     negative rho (up, down):  7.631E-01 0.000E+00

     total cpu time spent up to now is      485.8 secs

     total energy              =   -3165.48457573 Ry
     estimated scf accuracy    <       0.00060395 Ry

     iteration # 99     ecut=    30.00 Ry     beta= 0.40
     Davidson diagonalization with overlap
     ethr =  3.98E-09,  avg # of iterations =  3.0

     negative rho (up, down):  7.612E-01 0.000E+00

     total cpu time spent up to now is      490.6 secs

     total energy              =   -3165.48515880 Ry
     estimated scf accuracy    <       0.00075028 Ry

     iteration #100     ecut=    30.00 Ry     beta= 0.40
     Davidson diagonalization with overlap
     ethr =  3.98E-09,  avg # of iterations =  4.0

     negative rho (up, down):  7.611E-01 0.000E+00

     total cpu time spent up to now is      495.4 secs

     total energy              =   -3165.48528917 Ry
     estimated scf accuracy    <       0.00023684 Ry

     iteration #101     ecut=    30.00 Ry     beta= 0.40
     Davidson diagonalization with overlap
     ethr =  3.98E-09,  avg # of iterations =  3.0

     negative rho (up, down):  7.613E-01 0.000E+00

     total cpu time spent up to now is      500.2 secs

     total energy              =   -3165.48532026 Ry
     estimated scf accuracy    <       0.00012842 Ry

     iteration #102     ecut=    30.00 Ry     beta= 0.40
     Davidson diagonalization with overlap
     ethr =  3.98E-09,  avg # of iterations =  3.0

     negative rho (up, down):  7.615E-01 0.000E+00

     total cpu time spent up to now is      505.1 secs

     total energy              =   -3165.48532186 Ry
     estimated scf accuracy    <       0.00009936 Ry

     iteration #103     ecut=    30.00 Ry     beta= 0.40
     Davidson diagonalization with overlap
     ethr =  3.98E-09,  avg # of iterations =  3.0

     negative rho (up, down):  7.617E-01 0.000E+00

     total cpu time spent up to now is      509.8 secs

     total energy              =   -3165.48532690 Ry
     estimated scf accuracy    <       0.00010174 Ry

     iteration #104     ecut=    30.00 Ry     beta= 0.40
     Davidson diagonalization with overlap
     ethr =  3.98E-09,  avg # of iterations =  3.0

     negative rho (up, down):  7.618E-01 0.000E+00

     total cpu time spent up to now is      514.6 secs

     total energy              =   -3165.48535193 Ry
     estimated scf accuracy    <       0.00010029 Ry

     iteration #105     ecut=    30.00 Ry     beta= 0.40
     Davidson diagonalization with overlap
     ethr =  3.98E-09,  avg # of iterations =  3.0

     negative rho (up, down):  7.619E-01 0.000E+00

     total cpu time spent up to now is      519.4 secs

     total energy              =   -3165.48535189 Ry
     estimated scf accuracy    <       0.00008224 Ry

     iteration #106     ecut=    30.00 Ry     beta= 0.40
     Davidson diagonalization with overlap
     ethr =  3.98E-09,  avg # of iterations =  3.0

     negative rho (up, down):  7.623E-01 0.000E+00

     total cpu time spent up to now is      524.2 secs

     total energy              =   -3165.48524183 Ry
     estimated scf accuracy    <       0.00008588 Ry

     iteration #107     ecut=    30.00 Ry     beta= 0.40
     Davidson diagonalization with overlap
     ethr =  3.98E-09,  avg # of iterations =  5.0

     negative rho (up, down):  7.636E-01 0.000E+00

     total cpu time spent up to now is      529.0 secs

     total energy              =   -3165.48478887 Ry
     estimated scf accuracy    <       0.00018529 Ry

     iteration #108     ecut=    30.00 Ry     beta= 0.40
     Davidson diagonalization with overlap
     ethr =  3.98E-09,  avg # of iterations =  4.0

     negative rho (up, down):  7.627E-01 0.000E+00

     total cpu time spent up to now is      533.7 secs

     total energy              =   -3165.48498297 Ry
     estimated scf accuracy    <       0.00048719 Ry

     iteration #109     ecut=    30.00 Ry     beta= 0.40
     Davidson diagonalization with overlap
     ethr =  3.98E-09,  avg # of iterations =  3.0

     negative rho (up, down):  7.624E-01 0.000E+00

     total cpu time spent up to now is      538.5 secs

     total energy              =   -3165.48504772 Ry
     estimated scf accuracy    <       0.00035489 Ry

     iteration #110     ecut=    30.00 Ry     beta= 0.40
     Davidson diagonalization with overlap
     ethr =  3.98E-09,  avg # of iterations =  3.0

     negative rho (up, down):  7.629E-01 0.000E+00

     total cpu time spent up to now is      543.3 secs

     total energy              =   -3165.48490225 Ry
     estimated scf accuracy    <       0.00031633 Ry

     iteration #111     ecut=    30.00 Ry     beta= 0.40
     Davidson diagonalization with overlap
     ethr =  3.98E-09,  avg # of iterations =  3.0

     negative rho (up, down):  7.629E-01 0.000E+00

     total cpu time spent up to now is      548.1 secs

     total energy              =   -3165.48486443 Ry
     estimated scf accuracy    <       0.00040957 Ry

     iteration #112     ecut=    30.00 Ry     beta= 0.40
     Davidson diagonalization with overlap
     ethr =  3.98E-09,  avg # of iterations =  2.0

     negative rho (up, down):  7.622E-01 0.000E+00

     total cpu time spent up to now is      552.9 secs

     total energy              =   -3165.48504464 Ry
     estimated scf accuracy    <       0.00044272 Ry

     iteration #113     ecut=    30.00 Ry     beta= 0.40
     Davidson diagonalization with overlap
     ethr =  3.98E-09,  avg # of iterations =  3.0

     negative rho (up, down):  7.616E-01 0.000E+00

     total cpu time spent up to now is      557.6 secs

     total energy              =   -3165.48527518 Ry
     estimated scf accuracy    <       0.00032157 Ry

     iteration #114     ecut=    30.00 Ry     beta= 0.40
     Davidson diagonalization with overlap
     ethr =  3.98E-09,  avg # of iterations =  4.0

     negative rho (up, down):  7.616E-01 0.000E+00

     total cpu time spent up to now is      562.4 secs

     total energy              =   -3165.48538926 Ry
     estimated scf accuracy    <       0.00015417 Ry

     iteration #115     ecut=    30.00 Ry     beta= 0.40
     Davidson diagonalization with overlap
     ethr =  3.98E-09,  avg # of iterations =  3.0

     negative rho (up, down):  7.618E-01 0.000E+00

     total cpu time spent up to now is      567.2 secs

     total energy              =   -3165.48542497 Ry
     estimated scf accuracy    <       0.00006872 Ry

     iteration #116     ecut=    30.00 Ry     beta= 0.40
     Davidson diagonalization with overlap
     ethr =  3.98E-09,  avg # of iterations =  2.0

     negative rho (up, down):  7.621E-01 0.000E+00

     total cpu time spent up to now is      571.9 secs

     total energy              =   -3165.48543463 Ry
     estimated scf accuracy    <       0.00003833 Ry

     iteration #117     ecut=    30.00 Ry     beta= 0.40
     Davidson diagonalization with overlap
     ethr =  3.98E-09,  avg # of iterations =  2.0

     negative rho (up, down):  7.624E-01 0.000E+00

     total cpu time spent up to now is      576.7 secs

     total energy              =   -3165.48542889 Ry
     estimated scf accuracy    <       0.00003141 Ry

     iteration #118     ecut=    30.00 Ry     beta= 0.40
     Davidson diagonalization with overlap
     ethr =  3.98E-09,  avg # of iterations =  2.0

     negative rho (up, down):  7.627E-01 0.000E+00

     total cpu time spent up to now is      581.4 secs

     total energy              =   -3165.48537360 Ry
     estimated scf accuracy    <       0.00003593 Ry

     iteration #119     ecut=    30.00 Ry     beta= 0.40
     Davidson diagonalization with overlap
     ethr =  3.98E-09,  avg # of iterations =  3.0

     negative rho (up, down):  7.628E-01 0.000E+00

     total cpu time spent up to now is      586.2 secs

     total energy              =   -3165.48543032 Ry
     estimated scf accuracy    <       0.00006594 Ry

     iteration #120     ecut=    30.00 Ry     beta= 0.40
     Davidson diagonalization with overlap
     ethr =  3.98E-09,  avg # of iterations =  2.0

     negative rho (up, down):  7.631E-01 0.000E+00

     total cpu time spent up to now is      591.0 secs

     total energy              =   -3165.48544277 Ry
     estimated scf accuracy    <       0.00002786 Ry

     iteration #121     ecut=    30.00 Ry     beta= 0.40
     Davidson diagonalization with overlap
     ethr =  3.98E-09,  avg # of iterations =  2.0

     negative rho (up, down):  7.633E-01 0.000E+00

     total cpu time spent up to now is      595.7 secs

     total energy              =   -3165.48545013 Ry
     estimated scf accuracy    <       0.00001649 Ry

     iteration #122     ecut=    30.00 Ry     beta= 0.40
     Davidson diagonalization with overlap
     ethr =  3.98E-09,  avg # of iterations =  2.0

     negative rho (up, down):  7.635E-01 0.000E+00

     total cpu time spent up to now is      600.6 secs

     total energy              =   -3165.48545617 Ry
     estimated scf accuracy    <       0.00001049 Ry

     iteration #123     ecut=    30.00 Ry     beta= 0.40
     Davidson diagonalization with overlap
     ethr =  3.98E-09,  avg # of iterations =  2.0

     negative rho (up, down):  7.636E-01 0.000E+00

     total cpu time spent up to now is      605.3 secs

     total energy              =   -3165.48545705 Ry
     estimated scf accuracy    <       0.00000058 Ry

     iteration #124     ecut=    30.00 Ry     beta= 0.40
     Davidson diagonalization with overlap
     ethr =  3.06E-10,  avg # of iterations =  5.0

     negative rho (up, down):  7.637E-01 0.000E+00

     total cpu time spent up to now is      610.1 secs

     total energy              =   -3165.48545767 Ry
     estimated scf accuracy    <       0.00000065 Ry

     iteration #125     ecut=    30.00 Ry     beta= 0.40
     Davidson diagonalization with overlap
     ethr =  3.06E-10,  avg # of iterations =  3.0

     negative rho (up, down):  7.638E-01 0.000E+00

     total cpu time spent up to now is      614.9 secs

     total energy              =   -3165.48545734 Ry
     estimated scf accuracy    <       0.00000078 Ry

     iteration #126     ecut=    30.00 Ry     beta= 0.40
     Davidson diagonalization with overlap
     ethr =  3.06E-10,  avg # of iterations =  3.0

     negative rho (up, down):  7.638E-01 0.000E+00

     total cpu time spent up to now is      619.7 secs

     total energy              =   -3165.48545795 Ry
     estimated scf accuracy    <       0.00000012 Ry

     iteration #127     ecut=    30.00 Ry     beta= 0.40
     Davidson diagonalization with overlap
     ethr =  6.55E-11,  avg # of iterations =  5.0

     negative rho (up, down):  7.639E-01 0.000E+00

     total cpu time spent up to now is      624.5 secs

     total energy              =   -3165.48545879 Ry
     estimated scf accuracy    <       0.00000011 Ry

     iteration #128     ecut=    30.00 Ry     beta= 0.40
     Davidson diagonalization with overlap
     ethr =  5.81E-11,  avg # of iterations =  4.0

     negative rho (up, down):  7.639E-01 0.000E+00

     total cpu time spent up to now is      629.3 secs

     total energy              =   -3165.48545904 Ry
     estimated scf accuracy    <       0.00000017 Ry

     iteration #129     ecut=    30.00 Ry     beta= 0.40
     Davidson diagonalization with overlap
     ethr =  5.81E-11,  avg # of iterations =  4.0

     negative rho (up, down):  7.640E-01 0.000E+00

     total cpu time spent up to now is      634.1 secs

     End of self-consistent calculation

          k = 0.0000 0.0000 0.0000 ( 41925 PWs)   bands (ev):

   -60.3610 -37.6669 -36.6393 -36.0951 -16.7660 -16.3424 -16.3114 -16.2480
   -16.2083 -16.1126 -16.0693 -15.8517 -14.3104 -14.2074 -14.0833 -13.9957
   -13.9610 -13.9471 -13.8796 -13.6321  -7.8150  -7.6671  -7.6533  -7.5731
    -7.5310  -7.4243  -7.4137  -6.8834  -6.8630  -6.7007  -6.6006  -6.5743
    -6.5070  -6.4492  -6.3977  -6.2953  -6.2507  -6.2200  -6.1219  -5.9366
    -5.8893  -5.8455  -5.7441  -5.6556  -5.5474  -5.4931  -5.2956  -5.1595
    -5.0963  -5.0490  -5.0214  -4.9721  -4.8316  -4.8128  -4.6350  -4.6232
    -4.6089  -4.5363  -4.4756  -4.3888  -4.2261  -4.2102  -4.1735  -4.1478
    -4.1400  -4.0909  -3.9936  -3.9571  -3.8295  -3.8245  -3.7711  -3.7151
    -3.6417  -3.6038  -3.5722  -3.5367  -3.5250  -3.4822  -3.4427  -3.4279
    -3.4271  -3.3658  -3.3491  -3.1869  -3.1473  -3.0762  -3.0321  -2.7301
    -2.6374  -2.6122  -2.5189  -2.5116  -1.8462  -1.8134  -1.6479  -1.5015
    -1.3769  -1.0564  -0.9073  -0.8239  -0.8189  -0.7369  -0.6900  -0.5957
    -0.4410  -0.2899  -0.2291  -0.1752  -0.1055   0.2005   0.2181   0.3566
     0.4103

     the Fermi energy is    -1.7282 ev

!    total energy              =   -3165.48546038 Ry
     estimated scf accuracy    <       0.00000007 Ry
     smearing contrib. (-TS)   =       0.00050030 Ry
     internal energy E=F+TS    =   -3165.48596068 Ry

     The total energy is F=E-TS. E is the sum of the following terms:
     one-electron contribution =   -3132.31430250 Ry
     hartree contribution      =    1637.21315316 Ry
     xc contribution           =    -293.87084682 Ry
     ewald contribution        =     816.32492234 Ry
     one-center paw contrib.   =   -2192.83888685 Ry

     convergence has been achieved in 129 iterations

     negative rho (up, down):  7.640E-01 0.000E+00

     Forces acting on atoms (cartesian axes, Ry/au):

     atom    1 type  1   force =    -0.00113150   -0.00860487    0.00407595
     atom    2 type  1   force =     0.00041597   -0.00186884    0.00039176
     atom    3 type  1   force =     0.00023234   -0.00291148    0.00012624
     atom    4 type  1   force =     0.01249966    0.00434322    0.00106010
     atom    5 type  1   force =     0.00142958   -0.00204751   -0.00060107
     atom    6 type  1   force =    -0.00140187   -0.00220318    0.00002194
     atom    7 type  1   force =     0.00175874   -0.00101798   -0.00012677
     atom    8 type  1   force =     0.00116611   -0.00016639    0.00195742
     atom    9 type  2   force =     0.00289540   -0.00070610    0.00393977
     atom   10 type  2   force =     0.00115493   -0.00074657    0.00237339
     atom   11 type  2   force =     0.00201264    0.00178830   -0.00874889
     atom   12 type  2   force =    -0.00256535   -0.00337058   -0.00237650
     atom   13 type  2   force =    -0.00024161   -0.00423106   -0.00178784
     atom   14 type  2   force =     0.00395710   -0.00071404    0.00326076
     atom   15 type  2   force =     0.00149455   -0.00229803    0.01323344
     atom   16 type  2   force =    -0.00068464   -0.00412293   -0.00473269
     atom   17 type  2   force =     0.01135463   -0.01303783   -0.01944791
     atom   18 type  2   force =     0.00225224   -0.00352135   -0.00319241
     atom   19 type  2   force =     0.00414379   -0.00303386   -0.00494655
     atom   20 type  2   force =     0.00480779   -0.00637456    0.00681644
     atom   21 type  2   force =     0.00177280    0.00049720    0.00207690
     atom   22 type  2   force =     0.00005481   -0.00520810   -0.00355273
     atom   23 type  2   force =    -0.01323874    0.01446235   -0.02476806
     atom   24 type  2   force =    -0.00086985    0.00007721    0.00281719
     atom   25 type  3   force =    -0.03326951    0.04501699    0.03213012

     Total force =     0.082454     Total SCF correction =     0.000165


     Computing stress (Cartesian axis) and pressure


     negative rho (up, down):  7.640E-01 0.000E+00
          total   stress  (Ry/bohr**3)                   (kbar)     P=       -1.46
  -0.00002127   0.00000835   0.00000352           -3.13        1.23        0.52
   0.00000835   0.00000343  -0.00000262            1.23        0.50       -0.39
   0.00000352  -0.00000262  -0.00001202            0.52       -0.39       -1.77


     Writing all to output data dir /root/qe_scratch/cand245_A_Pd2Se4_Ti.save/ :
     XML data file, charge density, pseudopotentials, collected wavefunctions
 
     init_run     :      8.67s CPU     10.97s WALL (       1 calls)
     electrons    :    519.97s CPU    622.37s WALL (       1 calls)
     forces       :      1.03s CPU      1.07s WALL (       1 calls)
     stress       :      0.68s CPU      0.70s WALL (       1 calls)

     Called by init_run:
     wfcinit      :      0.23s CPU      0.39s WALL (       1 calls)
     potinit      :      7.44s CPU      9.27s WALL (       1 calls)
     hinit0       :      0.49s CPU      0.61s WALL (       1 calls)

     Called by electrons:
     c_bands      :     33.78s CPU     33.96s WALL (     130 calls)
     sum_band     :     10.58s CPU     10.65s WALL (     130 calls)
     v_of_rho     :     10.15s CPU     13.49s WALL (     130 calls)
     newd         :     37.90s CPU     38.20s WALL (     130 calls)
                                       38.20s GPU  (     130 calls)
     PAW_pot      :    405.80s CPU    500.64s WALL (     130 calls)
     mix_rho      :      7.17s CPU      7.43s WALL (     130 calls)

     Called by c_bands:
     init_us_2    :      0.27s CPU      0.27s WALL (     261 calls)
     cegterg      :     32.94s CPU     33.07s WALL (     130 calls)

     Called by *egterg:
     cdiaghg      :      4.40s CPU      4.44s WALL (     625 calls)
                                        4.44s GPU  (     625 calls)
     h_psi        :     12.85s CPU     13.10s WALL (     627 calls)
                                       13.09s GPU  (     627 calls)
     s_psi        :      0.58s CPU      0.58s WALL (     627 calls)
     g_psi        :      0.00s CPU      0.07s WALL (     496 calls)
                                        0.07s GPU  (     496 calls)

     Called by h_psi:
     h_psi:calbec :      0.13s CPU      3.11s WALL (     627 calls)
                                        3.11s GPU  (     627 calls)
     vloc_psi     :      6.79s CPU      6.87s WALL (     627 calls)
                                        6.87s GPU  (     627 calls)
     add_vuspsi   :      0.56s CPU      3.04s WALL (     627 calls)
                                        3.04s GPU  (     627 calls)

     General routines
     calbec       :      0.13s CPU      0.28s WALL (     762 calls)
     fft          :     12.44s CPU     16.45s WALL (    1714 calls)
                                        0.26s GPU  (    1584 calls)
     ffts         :      5.25s CPU      6.52s WALL (     260 calls)
                                        0.02s GPU  (     130 calls)
     fftw         :      0.11s CPU      6.80s WALL (    6290 calls)
                                        6.78s GPU  (    6290 calls)
     interpolate  :     18.52s CPU     23.60s WALL (     130 calls)
 
     Parallel routines
 
     PWSCF        :   8m51.30s CPU  10m36.21s WALL

 
   This run was terminated on:   2:49:14   7May2026            

=------------------------------------------------------------------------------=
   JOB DONE.
=------------------------------------------------------------------------------=
Warning: ieee_invalid is signaling
Warning: ieee_divide_by_zero is signaling
Warning: ieee_inexact is signaling
FORTRAN STOP
