--------------------------------------------------------------------------
WARNING: Open MPI tried to bind a process but failed.  This is a
warning only; your job will continue, though performance may
be degraded.

  Local host:        3253031b5b37
  Application name:  /root/qe-7.3.1/bin/pw.x
  Error message:     failed to bind memory
  Location:          ../../../../../orte/mca/rtc/hwloc/rtc_hwloc.c:447

--------------------------------------------------------------------------

     Program PWSCF v.7.3.1 starts on  7May2026 at  2: 4:36 

     This program is part of the open-source Quantum ESPRESSO suite
     for quantum simulation of materials; please cite
         "P. Giannozzi et al., J. Phys.:Condens. Matter 21 395502 (2009);
         "P. Giannozzi et al., J. Phys.:Condens. Matter 29 465901 (2017);
         "P. Giannozzi et al., J. Chem. Phys. 152 154105 (2020);
          URL http://www.quantum-espresso.org", 
     in publications or presentations arising from this work. More details at
     http://www.quantum-espresso.org/quote

     Parallel version (MPI & OpenMP), running on       8 processor cores
     Number of MPI processes:                 1
     Threads/MPI process:                     8

     MPI processes distributed on     1 nodes
     91747 MiB available memory on the printing compute node when the environment starts
 
     Reading input from cand019_B_MoSe2_La.in

     Current dimensions of program PWSCF are:
     Max number of different atomic species (ntypx) = 10
     Max number of k-points (npk) =  40000
     Max angular momentum in pseudopotentials (lmaxx) =  4
     file La.UPF: wavefunction(s)  5S 5D 4F renormalized
     file Mo.UPF: wavefunction(s)  4S 4D renormalized
     Message from routine setup:
     using ibrav=0 with symmetry is DISCOURAGED, use correct ibrav instead
 
     Subspace diagonalization in iterative solution of the eigenvalue problem:
     a serial algorithm will be used

 
     G-vector sticks info
     --------------------
     sticks:   dense  smooth     PW     G-vecs:    dense   smooth      PW
     Sum        7813    5197   1285               770679   419581   52441
 
     Using Slab Decomposition
 


     bravais-lattice index     =            0
     lattice parameter (alat)  =      25.0937  a.u.
     unit-cell volume          =   18897.7908 (a.u.)^3
     number of atoms/cell      =           49
     number of atomic types    =            3
     number of electrons       =       427.00
     number of Kohn-Sham states=          257
     kinetic-energy cutoff     =      30.0000  Ry
     charge density cutoff     =     180.0000  Ry
     scf convergence threshold =      1.0E-07
     mixing beta               =       0.4000
     number of iterations used =            8  plain     mixing
     Exchange-correlation= PBE
                           (   1   4   3   4   0   0   0)

     GPU acceleration is ACTIVE.  1 visible GPUs per MPI rank


     celldm(1)=  25.093665  celldm(2)=   0.000000  celldm(3)=   0.000000
     celldm(4)=   0.000000  celldm(5)=   0.000000  celldm(6)=   0.000000

     crystal axes: (cart. coord. in units of alat)
               a(1) = (   1.000000   0.000000   0.000000 )  
               a(2) = (  -0.500000   0.866025   0.000000 )  
               a(3) = (   0.000000   0.000000   1.380982 )  

     reciprocal axes: (cart. coord. in units 2 pi/alat)
               b(1) = (  1.000000  0.577350 -0.000000 )  
               b(2) = (  0.000000  1.154701  0.000000 )  
               b(3) = (  0.000000 -0.000000  0.724122 )  


     PseudoPot. # 1 for La read from file:
     /root/qe_pseudos/La.UPF
     MD5 check sum: 6e6ac421535d279511fd22156ed99225
     Pseudo is Projector augmented-wave + core cor, Zval = 11.0
     Generated using &quot;atomic&quot; code by A. Dal Corso  v.6.2.2
     Shape of augmentation charge: PSQ
     Using radial grid of 1253 points,  8 beta functions with: 
                l(1) =   0
                l(2) =   0
                l(3) =   1
                l(4) =   1
                l(5) =   2
                l(6) =   2
                l(7) =   3
                l(8) =   3
     Q(r) pseudized with 0 coefficients 


     PseudoPot. # 2 for Mo read from file:
     /root/qe_pseudos/Mo.UPF
     MD5 check sum: 4396e0c640fcce5c25f020efccf1ab12
     Pseudo is Projector augmented-wave + core cor, Zval = 14.0
     Generated using &quot;atomic&quot; code by A. Dal Corso  v.6.3
     Shape of augmentation charge: PSQ
     Using radial grid of 1229 points,  6 beta functions with: 
                l(1) =   0
                l(2) =   0
                l(3) =   1
                l(4) =   1
                l(5) =   2
                l(6) =   2
     Q(r) pseudized with 0 coefficients 


     PseudoPot. # 3 for Se read from file:
     /root/qe_pseudos/Se.UPF
     MD5 check sum: 8e2a6847b5cb9faee9497ebb573e71ea
     Pseudo is Ultrasoft + core correction, Zval =  6.0
     Generated using &quot;atomic&quot; code by A. Dal Corso  v.6.3
     Using radial grid of 1211 points,  4 beta functions with: 
                l(1) =   0
                l(2) =   0
                l(3) =   1
                l(4) =   1
     Q(r) pseudized with 0 coefficients 


     atomic species   valence    mass     pseudopotential
     La               11.00   138.90550     La( 1.00)
     Mo               14.00    95.95000     Mo( 1.00)
     Se                6.00    78.97100     Se( 1.00)

      6 Sym. Ops. (no inversion) found ( 5 have fractional translation)



   Cartesian axes

     site n.     atom                  positions (alat units)
         1        Mo     tau(   1) = (   0.0022158   0.0002492   0.6907385  )
         2        Mo     tau(   2) = (   0.3750001   0.6497776   0.6909388  )
         3        Mo     tau(   3) = (   0.5002240   0.4328834   0.6909387  )
         4        Mo     tau(   4) = (   0.6241079   0.2144630   0.6907385  )
         5        Mo     tau(   5) = (   0.7477843   0.0002491   0.6907384  )
         6        Mo     tau(   6) = (   0.1248286   0.6496180   0.6902900  )
         7        Mo     tau(   7) = (   0.2497762   0.4328834   0.6909387  )
         8        Mo     tau(   8) = (   0.3750000   0.2163083   0.6902899  )
         9        Mo     tau(   9) = (  -0.1249999   0.6496869   0.6907740  )
        10        Mo     tau(  10) = (  -0.0013236   0.4348070   0.6907382  )
        11        Mo     tau(  11) = (   0.1258921   0.2144627   0.6907383  )
        12        Mo     tau(  12) = (   0.2501455  -0.0000840   0.6907740  )
        13        Mo     tau(  13) = (   0.4998547  -0.0000839   0.6907739  )
        14        Mo     tau(  14) = (  -0.2486765   0.4348069   0.6907386  )
        15        Mo     tau(  15) = (  -0.1250008   0.2165066   0.6975200  )
        16        Mo     tau(  16) = (  -0.3748284   0.6496180   0.6902900  )
        17        Se     tau(  17) = (   0.2495533   0.2887950   0.5646524  )
        18        Se     tau(  18) = (   0.5009181   0.7210300   0.8162647  )
        19        Se     tau(  19) = (   0.1254002   0.0719377   0.8174432  )
        20        Se     tau(  20) = (   0.6251196   0.5047346   0.5646524  )
        21        Se     tau(  21) = (   0.6248892   0.5063054   0.8162646  )
        22        Se     tau(  22) = (   0.1254066   0.0719339   0.5641391  )
        23        Se     tau(  23) = (   0.7530485   0.2869152   0.5689772  )
        24        Se     tau(  24) = (   0.7396170   0.2946697   0.8244678  )
        25        Se     tau(  25) = (   0.3750001   0.0721903   0.5645813  )
        26        Se     tau(  26) = (   0.8749999   0.0756896   0.5689774  )
        27        Se     tau(  27) = (   0.8750000   0.0601813   0.8244661  )
        28        Se     tau(  28) = (   0.0103809   0.2946685   0.8244648  )
        29        Se     tau(  29) = (   0.2503275   0.7220148   0.5646525  )
        30        Se     tau(  30) = (   0.2490822   0.7210301   0.8162646  )
        31        Se     tau(  31) = (  -0.0030492   0.2869146   0.5689773  )
        32        Se     tau(  32) = (   0.3750001   0.5051815   0.5653112  )
        33        Se     tau(  33) = (   0.3750001   0.5051814   0.8167018  )
        34        Se     tau(  34) = (  -0.2500185   0.7216770   0.5645814  )
        35        Se     tau(  35) = (   0.5004469   0.2887950   0.5646523  )
        36        Se     tau(  36) = (   0.4989713   0.2882090   0.8162645  )
        37        Se     tau(  37) = (  -0.1249999   0.5056434   0.8174432  )
        38        Se     tau(  38) = (   0.6245936   0.0719340   0.5641391  )
        39        Se     tau(  39) = (   0.6246001   0.0719378   0.8174432  )
        40        Se     tau(  40) = (   0.4996728   0.7220147   0.5646526  )
        41        Se     tau(  41) = (   0.0000188   0.7216770   0.5645814  )
        42        Se     tau(  42) = (  -0.0001662   0.7217839   0.8165905  )
        43        Se     tau(  43) = (  -0.1250000   0.5056509   0.5641391  )
        44        Se     tau(  44) = (   0.1248807   0.5047347   0.5646524  )
        45        Se     tau(  45) = (   0.1251108   0.5063052   0.8162645  )
        46        Se     tau(  46) = (  -0.2498334   0.7217839   0.8165905  )
        47        Se     tau(  47) = (   0.2510286   0.2882090   0.8162645  )
        48        Se     tau(  48) = (   0.3750002   0.0719766   0.8165905  )
        49        La     tau(  49) = (  -0.1250003   0.2165065   0.9087744  )

     number of k points=     1  Methfessel-Paxton smearing, width (Ry)=  0.0100
                       cart. coord. in units 2pi/alat
        k(    1) = (   0.0000000   0.0000000   0.0000000), wk =   2.0000000

     Dense  grid:   770679 G-vectors     FFT dimensions: ( 108, 108, 150)

     Smooth grid:   419581 G-vectors     FFT dimensions: (  96,  96, 125)

     Estimated max dynamical RAM per process >       8.59 GB

 %%%%%%%%%%%%%%%%%%%%%%%%%%%%%%%%%%%%%%%%%%%%%%%%%%%%%%%%%%%%%%%%%%%%%%%%%%%%%%
     Error in routine  ylmr2 (15):
     l too large, or wrong number of Ylm required
 %%%%%%%%%%%%%%%%%%%%%%%%%%%%%%%%%%%%%%%%%%%%%%%%%%%%%%%%%%%%%%%%%%%%%%%%%%%%%%

     stopping ...
--------------------------------------------------------------------------
MPI_ABORT was invoked on rank 0 in communicator MPI_COMM_WORLD
with errorcode 15.

NOTE: invoking MPI_ABORT causes Open MPI to kill all MPI processes.
You may or may not see output from other processes, depending on
exactly when Open MPI kills them.
--------------------------------------------------------------------------
