--------------------------------------------------------------------------
WARNING: Open MPI tried to bind a process but failed.  This is a
warning only; your job will continue, though performance may
be degraded.

  Local host:        3253031b5b37
  Application name:  /root/qe-7.3.1/bin/pw.x
  Error message:     failed to bind memory
  Location:          ../../../../../orte/mca/rtc/hwloc/rtc_hwloc.c:447

--------------------------------------------------------------------------

     Program PWSCF v.7.3.1 starts on  7May2026 at  2:49:22 

     This program is part of the open-source Quantum ESPRESSO suite
     for quantum simulation of materials; please cite
         "P. Giannozzi et al., J. Phys.:Condens. Matter 21 395502 (2009);
         "P. Giannozzi et al., J. Phys.:Condens. Matter 29 465901 (2017);
         "P. Giannozzi et al., J. Chem. Phys. 152 154105 (2020);
          URL http://www.quantum-espresso.org", 
     in publications or presentations arising from this work. More details at
     http://www.quantum-espresso.org/quote

     Parallel version (MPI & OpenMP), running on       8 processor cores
     Number of MPI processes:                 1
     Threads/MPI process:                     8

     MPI processes distributed on     1 nodes
     90934 MiB available memory on the printing compute node when the environment starts
 
     Reading input from cand247_B_Pd2Se4_Pb.in

     Current dimensions of program PWSCF are:
     Max number of different atomic species (ntypx) = 10
     Max number of k-points (npk) =  40000
     Max angular momentum in pseudopotentials (lmaxx) =  4
     file Pb.UPF: wavefunction(s)  6S 6P 5D renormalized
     file Pd.UPF: wavefunction(s)  5S 4D renormalized
 
     Subspace diagonalization in iterative solution of the eigenvalue problem:
     a serial algorithm will be used

 
     G-vector sticks info
     --------------------
     sticks:   dense  smooth     PW     G-vecs:    dense   smooth      PW
     Sum        6971    4641   1163               616503   335437   41925
 
     Using Slab Decomposition
 


     bravais-lattice index     =            0
     lattice parameter (alat)  =      21.7336  a.u.
     unit-cell volume          =   15116.8605 (a.u.)^3
     number of atoms/cell      =           25
     number of atomic types    =            3
     number of electrons       =       190.00
     number of Kohn-Sham states=          114
     kinetic-energy cutoff     =      30.0000  Ry
     charge density cutoff     =     180.0000  Ry
     scf convergence threshold =      1.0E-07
     mixing beta               =       0.4000
     number of iterations used =            8  plain     mixing
     Exchange-correlation= PBE
                           (   1   4   3   4   0   0   0)

     GPU acceleration is ACTIVE.  1 visible GPUs per MPI rank


     celldm(1)=  21.733591  celldm(2)=   0.000000  celldm(3)=   0.000000
     celldm(4)=   0.000000  celldm(5)=   0.000000  celldm(6)=   0.000000

     crystal axes: (cart. coord. in units of alat)
               a(1) = (   1.000000   0.000000   0.000000 )  
               a(2) = (   0.000000   1.029471   0.000000 )  
               a(3) = (   0.000000   0.000000   1.430385 )  

     reciprocal axes: (cart. coord. in units 2 pi/alat)
               b(1) = (  1.000000  0.000000  0.000000 )  
               b(2) = (  0.000000  0.971372  0.000000 )  
               b(3) = (  0.000000  0.000000  0.699113 )  


     PseudoPot. # 1 for Pb read from file:
     /root/qe_pseudos/Pb.UPF
     MD5 check sum: 8dd1fa6bc87c0adeb4efb5a3e91ed847
     Pseudo is Projector augmented-wave + core cor, Zval = 14.0
     Generated using &quot;atomic&quot; code by A. Dal Corso  v.6.3
     Shape of augmentation charge: PSQ
     Using radial grid of 1281 points,  6 beta functions with: 
                l(1) =   0
                l(2) =   0
                l(3) =   1
                l(4) =   1
                l(5) =   2
                l(6) =   2
     Q(r) pseudized with 0 coefficients 


     PseudoPot. # 2 for Pd read from file:
     /root/qe_pseudos/Pd.UPF
     MD5 check sum: a1ee5d3c3f0c030a735988cf39041146
     Pseudo is Projector augmented-wave + core cor, Zval = 10.0
     Generated using &quot;atomic&quot; code by A. Dal Corso  v.6.3
     Shape of augmentation charge: PSQ
     Using radial grid of 1235 points,  6 beta functions with: 
                l(1) =   0
                l(2) =   0
                l(3) =   1
                l(4) =   1
                l(5) =   2
                l(6) =   2
     Q(r) pseudized with 0 coefficients 


     PseudoPot. # 3 for Se read from file:
     /root/qe_pseudos/Se.UPF
     MD5 check sum: 8e2a6847b5cb9faee9497ebb573e71ea
     Pseudo is Ultrasoft + core correction, Zval =  6.0
     Generated using &quot;atomic&quot; code by A. Dal Corso  v.6.3
     Using radial grid of 1211 points,  4 beta functions with: 
                l(1) =   0
                l(2) =   0
                l(3) =   1
                l(4) =   1
     Q(r) pseudized with 0 coefficients 


     atomic species   valence    mass     pseudopotential
     Pb               14.00   207.20000     Pb( 1.00)
     Pd               10.00   106.42000     Pd( 1.00)
     Se                6.00    78.97100     Se( 1.00)

     No symmetry found



   Cartesian axes

     site n.     atom                  positions (alat units)
         1        Pd     tau(   1) = (   0.2484615   1.0279893   0.7200311  )
         2        Pd     tau(   2) = (   0.5003338   0.7718333   0.7154025  )
         3        Pd     tau(   3) = (   0.7498827   0.5146490   0.7152116  )
         4        Pd     tau(   4) = (   0.5013392   0.2576406   0.7196320  )
         5        Pd     tau(   5) = (   1.0003098   0.7724478   0.7150957  )
         6        Pd     tau(   6) = (   0.2491264   0.5154440   0.7144858  )
         7        Pd     tau(   7) = (   0.7496193   1.0294147   0.7153475  )
         8        Pd     tau(   8) = (   0.9987406   0.2585334   0.7145630  )
         9        Se     tau(   9) = (   0.9448965   0.9685577   0.7815897  )
        10        Se     tau(  10) = (   0.8048950   0.7103862   0.7820197  )
        11        Se     tau(  11) = (   0.5543739   0.5757293   0.6488772  )
        12        Se     tau(  12) = (   0.0549723   0.0626383   0.6489357  )
        13        Se     tau(  13) = (   0.6948323   0.3189690   0.6482211  )
        14        Se     tau(  14) = (   0.9451287   0.4539905   0.7818877  )
        15        Se     tau(  15) = (   0.4439470   0.4539776   0.7837275  )
        16        Se     tau(  16) = (   0.5540043   0.0613955   0.6494779  )
        17        Se     tau(  17) = (   0.3119449   0.1889663   0.7921914  )
        18        Se     tau(  18) = (   0.6955749   0.8335496   0.6482832  )
        19        Se     tau(  19) = (   0.1956590   0.8340087   0.6480232  )
        20        Se     tau(  20) = (   0.4457251   0.9663943   0.7833186  )
        21        Se     tau(  21) = (   0.3043922   0.7106793   0.7815240  )
        22        Se     tau(  22) = (   0.0543077   0.5768924   0.6477451  )
        23        Se     tau(  23) = (   0.1944398   0.3193564   0.6541549  )
        24        Se     tau(  24) = (   0.8042049   0.1960126   0.7816288  )
        25        Pb     tau(  25) = (   0.3042380   0.1993453   0.9878299  )

     number of k points=     1  Methfessel-Paxton smearing, width (Ry)=  0.0100
                       cart. coord. in units 2pi/alat
        k(    1) = (   0.0000000   0.0000000   0.0000000), wk =   2.0000000

     Dense  grid:   616503 G-vectors     FFT dimensions: (  96,  96, 135)

     Smooth grid:   335437 G-vectors     FFT dimensions: (  75,  80, 120)

     Estimated max dynamical RAM per process >       2.76 GB

     Initial potential from superposition of free atoms

     starting charge     189.9919, renormalised to     190.0000

     negative rho (up, down):  2.668E-02 0.000E+00
     Starting wfcs are  145 randomized atomic wfcs
     Checking if some PAW data can be deallocated... 

     total cpu time spent up to now is       11.8 secs

     Self-consistent Calculation

     iteration #  1     ecut=    30.00 Ry     beta= 0.40
     Davidson diagonalization with overlap
     ethr =  1.00E-02,  avg # of iterations =  3.0

     Threshold (ethr) on eigenvalues was too large:
     Diagonalizing with lowered threshold

     Davidson diagonalization with overlap
     ethr =  3.79E-04,  avg # of iterations =  5.0

     negative rho (up, down):  3.280E-02 0.000E+00

     total cpu time spent up to now is       17.3 secs

     total energy              =   -3851.80096118 Ry
     estimated scf accuracy    <       0.80384413 Ry

     iteration #  2     ecut=    30.00 Ry     beta= 0.40
     Davidson diagonalization with overlap
     ethr =  4.23E-04,  avg # of iterations =  2.0

     negative rho (up, down):  3.860E-02 0.000E+00

     total cpu time spent up to now is       22.0 secs

     total energy              =   -3851.82284539 Ry
     estimated scf accuracy    <       0.84181224 Ry

     iteration #  3     ecut=    30.00 Ry     beta= 0.40
     Davidson diagonalization with overlap
     ethr =  4.23E-04,  avg # of iterations =  2.0

     negative rho (up, down):  4.429E-02 0.000E+00

     total cpu time spent up to now is       26.7 secs

     total energy              =   -3851.93631775 Ry
     estimated scf accuracy    <       0.22060731 Ry

     iteration #  4     ecut=    30.00 Ry     beta= 0.40
     Davidson diagonalization with overlap
     ethr =  1.16E-04,  avg # of iterations =  7.0

     negative rho (up, down):  4.844E-02 0.000E+00

     total cpu time spent up to now is       31.8 secs

     total energy              =   -3851.94713898 Ry
     estimated scf accuracy    <       0.06593486 Ry

     iteration #  5     ecut=    30.00 Ry     beta= 0.40
     Davidson diagonalization with overlap
     ethr =  3.47E-05,  avg # of iterations =  6.0

     negative rho (up, down):  5.068E-02 0.000E+00

     total cpu time spent up to now is       36.8 secs

     total energy              =   -3851.95453340 Ry
     estimated scf accuracy    <       0.01641190 Ry

     iteration #  6     ecut=    30.00 Ry     beta= 0.40
     Davidson diagonalization with overlap
     ethr =  8.64E-06,  avg # of iterations =  9.0

     negative rho (up, down):  5.177E-02 0.000E+00

     total cpu time spent up to now is       41.7 secs

     total energy              =   -3851.95662126 Ry
     estimated scf accuracy    <       0.00157838 Ry

     iteration #  7     ecut=    30.00 Ry     beta= 0.40
     Davidson diagonalization with overlap
     ethr =  8.31E-07,  avg # of iterations =  4.0

     negative rho (up, down):  5.238E-02 0.000E+00

     total cpu time spent up to now is       46.6 secs

     total energy              =   -3851.95685960 Ry
     estimated scf accuracy    <       0.00072782 Ry

     iteration #  8     ecut=    30.00 Ry     beta= 0.40
     Davidson diagonalization with overlap
     ethr =  3.83E-07,  avg # of iterations =  2.0

     negative rho (up, down):  5.273E-02 0.000E+00

     total cpu time spent up to now is       51.4 secs

     total energy              =   -3851.95696105 Ry
     estimated scf accuracy    <       0.00018891 Ry

     iteration #  9     ecut=    30.00 Ry     beta= 0.40
     Davidson diagonalization with overlap
     ethr =  9.94E-08,  avg # of iterations =  2.0

     negative rho (up, down):  5.294E-02 0.000E+00

     total cpu time spent up to now is       56.2 secs

     total energy              =   -3851.95698522 Ry
     estimated scf accuracy    <       0.00003983 Ry

     iteration # 10     ecut=    30.00 Ry     beta= 0.40
     Davidson diagonalization with overlap
     ethr =  2.10E-08,  avg # of iterations =  2.0

     negative rho (up, down):  5.306E-02 0.000E+00

     total cpu time spent up to now is       61.0 secs

     total energy              =   -3851.95699127 Ry
     estimated scf accuracy    <       0.00000881 Ry

     iteration # 11     ecut=    30.00 Ry     beta= 0.40
     Davidson diagonalization with overlap
     ethr =  4.64E-09,  avg # of iterations =  2.0

     negative rho (up, down):  5.313E-02 0.000E+00

     total cpu time spent up to now is       65.8 secs

     total energy              =   -3851.95699231 Ry
     estimated scf accuracy    <       0.00000317 Ry

     iteration # 12     ecut=    30.00 Ry     beta= 0.40
     Davidson diagonalization with overlap
     ethr =  1.67E-09,  avg # of iterations =  2.0

     negative rho (up, down):  5.318E-02 0.000E+00

     total cpu time spent up to now is       70.7 secs

     total energy              =   -3851.95699282 Ry
     estimated scf accuracy    <       0.00000105 Ry

     iteration # 13     ecut=    30.00 Ry     beta= 0.40
     Davidson diagonalization with overlap
     ethr =  5.51E-10,  avg # of iterations =  2.0

     negative rho (up, down):  5.321E-02 0.000E+00

     total cpu time spent up to now is       75.5 secs

     total energy              =   -3851.95699296 Ry
     estimated scf accuracy    <       0.00000056 Ry

     iteration # 14     ecut=    30.00 Ry     beta= 0.40
     Davidson diagonalization with overlap
     ethr =  2.97E-10,  avg # of iterations =  2.0

     negative rho (up, down):  5.325E-02 0.000E+00

     total cpu time spent up to now is       80.4 secs

     End of self-consistent calculation

          k = 0.0000 0.0000 0.0000 ( 41925 PWs)   bands (ev):

   -19.1785 -18.5562 -18.4056 -18.3962 -18.3050 -16.5662 -16.1431 -16.1195
   -16.0610 -16.0116 -15.9226 -15.8995 -15.6930 -14.1396 -14.0146 -13.9180
   -13.7934 -13.7627 -13.7559 -13.6914 -13.4442  -9.9773  -7.6295  -7.4829
    -7.4474  -7.3818  -7.3329  -7.2331  -7.2059  -6.6694  -6.5191  -6.5038
    -6.3755  -6.3138  -6.2605  -6.2439  -6.1059  -6.0755  -6.0490  -6.0005
    -5.8725  -5.7188  -5.6437  -5.6146  -5.4702  -5.4518  -5.3034  -5.2951
    -5.0363  -4.9248  -4.9052  -4.8502  -4.8156  -4.7636  -4.6391  -4.6040
    -4.4359  -4.4208  -4.4021  -4.3312  -4.2503  -4.1733  -4.0402  -4.0146
    -3.9754  -3.9407  -3.9287  -3.8995  -3.7870  -3.7577  -3.6338  -3.6256
    -3.5655  -3.5071  -3.4514  -3.4082  -3.3874  -3.3341  -3.3246  -3.2737
    -3.2447  -3.2323  -3.2232  -3.1647  -3.1316  -2.9773  -2.9187  -2.8835
    -2.8351  -2.5066  -2.4413  -2.3986  -2.3304  -2.3161  -1.3866  -1.1869
    -0.8287  -0.6911  -0.5942  -0.5873  -0.4647  -0.3721  -0.1735  -0.1589
    -0.0311   0.0342   0.2168   0.3860   0.4610   0.6026   0.6757   0.8202
     1.8158   2.1553

     the Fermi energy is    -1.2868 ev

!    total energy              =   -3851.95699300 Ry
     estimated scf accuracy    <       0.00000004 Ry
     smearing contrib. (-TS)   =       0.00025630 Ry
     internal energy E=F+TS    =   -3851.95724930 Ry

     The total energy is F=E-TS. E is the sum of the following terms:
     one-electron contribution =   -3144.53548505 Ry
     hartree contribution      =    1653.40044130 Ry
     xc contribution           =    -307.99697781 Ry
     ewald contribution        =     815.22127741 Ry
     one-center paw contrib.   =   -2868.04650516 Ry

     convergence has been achieved in  14 iterations

     negative rho (up, down):  5.325E-02 0.000E+00

     Forces acting on atoms (cartesian axes, Ry/au):

     atom    1 type  2   force =    -0.00444689   -0.00424144   -0.00446522
     atom    2 type  2   force =     0.00254187    0.00300105   -0.00200355
     atom    3 type  2   force =    -0.00078607   -0.00013814   -0.00073616
     atom    4 type  2   force =     0.01217642    0.00815063   -0.00281923
     atom    5 type  2   force =     0.00067667    0.00109905    0.00058199
     atom    6 type  2   force =    -0.00193452    0.00033462   -0.00134933
     atom    7 type  2   force =    -0.00084232    0.00296509    0.00053126
     atom    8 type  2   force =    -0.00210777    0.00223471    0.00060896
     atom    9 type  3   force =     0.00097107    0.00032775    0.00363369
     atom   10 type  3   force =    -0.00027203   -0.00054683    0.00220393
     atom   11 type  3   force =    -0.00065684    0.00149379   -0.00320210
     atom   12 type  3   force =    -0.00343805   -0.00061090   -0.00145550
     atom   13 type  3   force =    -0.00173952   -0.00268361    0.00000672
     atom   14 type  3   force =     0.00292734    0.00058656    0.00254245
     atom   15 type  3   force =    -0.00389305    0.00146675    0.00813904
     atom   16 type  3   force =    -0.00166268   -0.00742349   -0.00323365
     atom   17 type  3   force =     0.02043999   -0.02674147   -0.18970578
     atom   18 type  3   force =     0.00062685   -0.00222374   -0.00283080
     atom   19 type  3   force =     0.00271251   -0.00015803   -0.00294067
     atom   20 type  3   force =     0.00442584   -0.00757745    0.00247942
     atom   21 type  3   force =     0.00047906   -0.00016770    0.00337858
     atom   22 type  3   force =     0.00033416   -0.00558019   -0.00303852
     atom   23 type  3   force =    -0.02189568    0.02523879   -0.03940654
     atom   24 type  3   force =    -0.00176022    0.00065811    0.00186735
     atom   25 type  1   force =    -0.00287617    0.01053608    0.23121366

     Total force =     0.306747     Total SCF correction =     0.000484


     Computing stress (Cartesian axis) and pressure


     negative rho (up, down):  5.325E-02 0.000E+00
          total   stress  (Ry/bohr**3)                   (kbar)     P=      -26.78
  -0.00022133  -0.00000444   0.00000374          -32.56       -0.65        0.55
  -0.00000444  -0.00019661   0.00000061           -0.65      -28.92        0.09
   0.00000374   0.00000061  -0.00012818            0.55        0.09      -18.86


     Writing all to output data dir /root/qe_scratch/cand247_B_Pd2Se4_Pb.save/ :
     XML data file, charge density, pseudopotentials, collected wavefunctions
 
     init_run     :      8.65s CPU     10.93s WALL (       1 calls)
     electrons    :     57.19s CPU     68.58s WALL (       1 calls)
     forces       :      1.02s CPU      1.07s WALL (       1 calls)
     stress       :      0.67s CPU      0.70s WALL (       1 calls)

     Called by init_run:
     wfcinit      :      0.24s CPU      0.39s WALL (       1 calls)
     potinit      :      7.36s CPU      9.21s WALL (       1 calls)
     hinit0       :      0.51s CPU      0.63s WALL (       1 calls)

     Called by electrons:
     c_bands      :      4.28s CPU      4.33s WALL (      15 calls)
     sum_band     :      1.23s CPU      1.24s WALL (      15 calls)
     v_of_rho     :      1.23s CPU      1.61s WALL (      15 calls)
     newd         :      4.43s CPU      4.50s WALL (      15 calls)
                                        4.50s GPU  (      15 calls)
     PAW_pot      :     47.00s CPU     58.20s WALL (      15 calls)
     mix_rho      :      0.64s CPU      0.68s WALL (      15 calls)

     Called by c_bands:
     init_us_2    :      0.03s CPU      0.03s WALL (      31 calls)
     cegterg      :      4.19s CPU      4.23s WALL (      15 calls)

     Called by *egterg:
     cdiaghg      :      0.48s CPU      0.50s WALL (      66 calls)
                                        0.50s GPU  (      66 calls)
     h_psi        :      1.53s CPU      1.68s WALL (      68 calls)
                                        1.68s GPU  (      68 calls)
     s_psi        :      0.06s CPU      0.06s WALL (      68 calls)
     g_psi        :      0.00s CPU      0.01s WALL (      52 calls)
                                        0.01s GPU  (      52 calls)

     Called by h_psi:
     h_psi:calbec :      0.12s CPU      0.56s WALL (      68 calls)
                                        0.56s GPU  (      68 calls)
     vloc_psi     :      0.77s CPU      0.79s WALL (      68 calls)
                                        0.79s GPU  (      68 calls)
     add_vuspsi   :      0.06s CPU      0.33s WALL (      68 calls)
                                        0.33s GPU  (      68 calls)

     General routines
     calbec       :      0.12s CPU      0.25s WALL (      88 calls)
     fft          :      3.60s CPU      4.63s WALL (     219 calls)
                                        0.03s GPU  (     204 calls)
     ffts         :      1.94s CPU      2.40s WALL (      30 calls)
                                        0.00s GPU  (      15 calls)
     fftw         :      0.02s CPU      0.78s WALL (     718 calls)
                                        0.78s GPU  (     718 calls)
     interpolate  :      5.63s CPU      7.10s WALL (      15 calls)
 
     Parallel routines
 
     PWSCF        :   1m 8.55s CPU   1m22.46s WALL

 
   This run was terminated on:   2:50:45   7May2026            

=------------------------------------------------------------------------------=
   JOB DONE.
=------------------------------------------------------------------------------=
Warning: ieee_invalid is signaling
Warning: ieee_divide_by_zero is signaling
Warning: ieee_inexact is signaling
FORTRAN STOP
