--------------------------------------------------------------------------
WARNING: Open MPI tried to bind a process but failed.  This is a
warning only; your job will continue, though performance may
be degraded.

  Local host:        3253031b5b37
  Application name:  /root/qe-7.3.1/bin/pw.x
  Error message:     failed to bind memory
  Location:          ../../../../../orte/mca/rtc/hwloc/rtc_hwloc.c:447

--------------------------------------------------------------------------

     Program PWSCF v.7.3.1 starts on  7May2026 at  2: 5:25 

     This program is part of the open-source Quantum ESPRESSO suite
     for quantum simulation of materials; please cite
         "P. Giannozzi et al., J. Phys.:Condens. Matter 21 395502 (2009);
         "P. Giannozzi et al., J. Phys.:Condens. Matter 29 465901 (2017);
         "P. Giannozzi et al., J. Chem. Phys. 152 154105 (2020);
          URL http://www.quantum-espresso.org", 
     in publications or presentations arising from this work. More details at
     http://www.quantum-espresso.org/quote

     Parallel version (MPI & OpenMP), running on       8 processor cores
     Number of MPI processes:                 1
     Threads/MPI process:                     8

     MPI processes distributed on     1 nodes
     91781 MiB available memory on the printing compute node when the environment starts
 
     Reading input from cand195_A_HfS2_La.in

     Current dimensions of program PWSCF are:
     Max number of different atomic species (ntypx) = 10
     Max number of k-points (npk) =  40000
     Max angular momentum in pseudopotentials (lmaxx) =  4
     file Hf.UPF: wavefunction(s)  5P renormalized
     file La.UPF: wavefunction(s)  5S 5D 4F renormalized
     file S.UPF: wavefunction(s)  3S 3P renormalized
 
     Subspace diagonalization in iterative solution of the eigenvalue problem:
     a serial algorithm will be used

 
     G-vector sticks info
     --------------------
     sticks:   dense  smooth     PW     G-vecs:    dense   smooth      PW
     Sum        5317    3559    889               511765   278619   34847
 
     Using Slab Decomposition
 


     bravais-lattice index     =            0
     lattice parameter (alat)  =      20.7049  a.u.
     unit-cell volume          =   12552.2754 (a.u.)^3
     number of atoms/cell      =           28
     number of atomic types    =            3
     number of electrons       =       227.00
     number of Kohn-Sham states=          137
     kinetic-energy cutoff     =      30.0000  Ry
     charge density cutoff     =     180.0000  Ry
     scf convergence threshold =      1.0E-07
     mixing beta               =       0.4000
     number of iterations used =            8  plain     mixing
     Exchange-correlation= SLA  PW   PBX  PBC
                           (   1   4   3   4   0   0   0)

     GPU acceleration is ACTIVE.  1 visible GPUs per MPI rank


     celldm(1)=  20.704869  celldm(2)=   0.000000  celldm(3)=   0.000000
     celldm(4)=   0.000000  celldm(5)=   0.000000  celldm(6)=   0.000000

     crystal axes: (cart. coord. in units of alat)
               a(1) = (   1.000000   0.000000   0.000000 )  
               a(2) = (  -0.500000   0.866025   0.000000 )  
               a(3) = (   0.000000   0.000000   1.632955 )  

     reciprocal axes: (cart. coord. in units 2 pi/alat)
               b(1) = (  1.000000  0.577350 -0.000000 )  
               b(2) = (  0.000000  1.154701  0.000000 )  
               b(3) = (  0.000000 -0.000000  0.612387 )  


     PseudoPot. # 1 for Hf read from file:
     /root/qe_pseudos/Hf.UPF
     MD5 check sum: bf8a91e620b6303fe4cf956cf37905ef
     Pseudo is Projector augmented-wave + core cor, Zval = 12.0
     Generated using &quot;atomic&quot; code by A. Dal Corso  v.6.2.2
     Shape of augmentation charge: PSQ
     Using radial grid of 1271 points,  6 beta functions with: 
                l(1) =   0
                l(2) =   0
                l(3) =   1
                l(4) =   1
                l(5) =   2
                l(6) =   2
     Q(r) pseudized with 0 coefficients 


     PseudoPot. # 2 for La read from file:
     /root/qe_pseudos/La.UPF
     MD5 check sum: 6e6ac421535d279511fd22156ed99225
     Pseudo is Projector augmented-wave + core cor, Zval = 11.0
     Generated using &quot;atomic&quot; code by A. Dal Corso  v.6.2.2
     Shape of augmentation charge: PSQ
     Using radial grid of 1253 points,  8 beta functions with: 
                l(1) =   0
                l(2) =   0
                l(3) =   1
                l(4) =   1
                l(5) =   2
                l(6) =   2
                l(7) =   3
                l(8) =   3
     Q(r) pseudized with 0 coefficients 


     PseudoPot. # 3 for S  read from file:
     /root/qe_pseudos/S.UPF
     MD5 check sum: fb45dfebcf3e72a4e1bd4a866ec2e262
     Pseudo is Projector augmented-wave + core cor, Zval =  6.0
     Generated using &quot;atomic&quot; code by A. Dal Corso  v.6.3
     Shape of augmentation charge: PSQ
     Using radial grid of 1151 points,  6 beta functions with: 
                l(1) =   0
                l(2) =   0
                l(3) =   1
                l(4) =   1
                l(5) =   2
                l(6) =   2
     Q(r) pseudized with 0 coefficients 


     atomic species   valence    mass     pseudopotential
     Hf               12.00   178.49000     Hf( 1.00)
     La               11.00   138.90550     La( 1.00)
     S                 6.00    32.06000     S ( 1.00)

     No symmetry found



   Cartesian axes

     site n.     atom                  positions (alat units)
         1        Hf     tau(   1) = (   0.0031105  -0.0030622   0.8103437  )
         2        Hf     tau(   2) = (   0.3354355   0.5760880   0.8164748  )
         3        Hf     tau(   3) = (  -0.1682476   0.2895665   0.8072328  )
         4        Hf     tau(   4) = (  -0.3319811   0.5763869   0.8162750  )
         5        Hf     tau(   5) = (   0.5015744   0.2875284   0.8163269  )
         6        Hf     tau(   6) = (   0.3371541  -0.0019645   0.8195550  )
         7        Hf     tau(   7) = (   0.6615269  -0.0018390   0.8145085  )
         8        Hf     tau(   8) = (   0.1706186   0.2876247   0.8105729  )
         9        Hf     tau(   9) = (  -0.0006748   0.5826924   0.8147560  )
        10        S      tau(  10) = (   0.4997498   0.6747725   0.9462934  )
        11        S      tau(  11) = (   0.4999176   0.4810041   0.6844884  )
        12        S      tau(  12) = (   0.6706108   0.3828956   0.9478922  )
        13        S      tau(  13) = (   0.6648944   0.1935121   0.6827770  )
        14        S      tau(  14) = (   0.8331681   0.0951149   0.9452256  )
        15        S      tau(  15) = (  -0.0035987   0.7714708   0.6799017  )
        16        S      tau(  16) = (   0.1666273   0.6735466   0.9445938  )
        17        S      tau(  17) = (   0.3326347   0.3845833   0.9463654  )
        18        S      tau(  18) = (   0.3318139   0.7709200   0.6861647  )
        19        S      tau(  19) = (   0.3341542   0.1916381   0.6861969  )
        20        S      tau(  20) = (   0.5014858   0.0966636   0.9500754  )
        21        S      tau(  21) = (  -0.3319380   0.7696718   0.6857792  )
        22        S      tau(  22) = (  -0.1666018   0.6720058   0.9495009  )
        23        S      tau(  23) = (  -0.1685023   0.4823754   0.6830097  )
        24        S      tau(  24) = (   0.0003611   0.3856240   0.9455714  )
        25        S      tau(  25) = (   0.0003087   0.1923183   0.6839106  )
        26        S      tau(  26) = (   0.1636153   0.0979947   0.9464170  )
        27        S      tau(  27) = (   0.1648428   0.4819838   0.6862358  )
        28        La     tau(  28) = (  -0.0853934   0.2417507   1.1513852  )

     number of k points=     1  Methfessel-Paxton smearing, width (Ry)=  0.0100
                       cart. coord. in units 2pi/alat
        k(    1) = (   0.0000000   0.0000000   0.0000000), wk =   2.0000000

     Dense  grid:   511765 G-vectors     FFT dimensions: (  90,  90, 150)

     Smooth grid:   278619 G-vectors     FFT dimensions: (  75,  75, 120)

     Estimated max dynamical RAM per process >       5.30 GB

 %%%%%%%%%%%%%%%%%%%%%%%%%%%%%%%%%%%%%%%%%%%%%%%%%%%%%%%%%%%%%%%%%%%%%%%%%%%%%%
     Error in routine  ylmr2 (15):
     l too large, or wrong number of Ylm required
 %%%%%%%%%%%%%%%%%%%%%%%%%%%%%%%%%%%%%%%%%%%%%%%%%%%%%%%%%%%%%%%%%%%%%%%%%%%%%%

     stopping ...
--------------------------------------------------------------------------
MPI_ABORT was invoked on rank 0 in communicator MPI_COMM_WORLD
with errorcode 15.

NOTE: invoking MPI_ABORT causes Open MPI to kill all MPI processes.
You may or may not see output from other processes, depending on
exactly when Open MPI kills them.
--------------------------------------------------------------------------
