--------------------------------------------------------------------------
WARNING: Open MPI tried to bind a process but failed.  This is a
warning only; your job will continue, though performance may
be degraded.

  Local host:        3253031b5b37
  Application name:  /root/qe-7.3.1/bin/pw.x
  Error message:     failed to bind memory
  Location:          ../../../../../orte/mca/rtc/hwloc/rtc_hwloc.c:447

--------------------------------------------------------------------------

     Program PWSCF v.7.3.1 starts on  6May2026 at 12:40:51 

     This program is part of the open-source Quantum ESPRESSO suite
     for quantum simulation of materials; please cite
         "P. Giannozzi et al., J. Phys.:Condens. Matter 21 395502 (2009);
         "P. Giannozzi et al., J. Phys.:Condens. Matter 29 465901 (2017);
         "P. Giannozzi et al., J. Chem. Phys. 152 154105 (2020);
          URL http://www.quantum-espresso.org", 
     in publications or presentations arising from this work. More details at
     http://www.quantum-espresso.org/quote

     Parallel version (MPI & OpenMP), running on       8 processor cores
     Number of MPI processes:                 1
     Threads/MPI process:                     8

     MPI processes distributed on     1 nodes
     84341 MiB available memory on the printing compute node when the environment starts
 
     Reading input from cand022_A_NbS2_Sn.in

     Current dimensions of program PWSCF are:
     Max number of different atomic species (ntypx) = 10
     Max number of k-points (npk) =  40000
     Max angular momentum in pseudopotentials (lmaxx) =  4
     file Nb.UPF: wavefunction(s)  4S 4P 4D renormalized
     file S.UPF: wavefunction(s)  3S 3P renormalized
     file Sn.UPF: wavefunction(s)  5S 4D renormalized
 
     Subspace diagonalization in iterative solution of the eigenvalue problem:
     a serial algorithm will be used

 
     G-vector sticks info
     --------------------
     sticks:   dense  smooth     PW     G-vecs:    dense   smooth      PW
     Sum        4471    2989    745               435105   236543   29687
 
     Using Slab Decomposition
 


     bravais-lattice index     =            0
     lattice parameter (alat)  =      18.9603  a.u.
     unit-cell volume          =   10663.0818 (a.u.)^3
     number of atoms/cell      =           28
     number of atomic types    =            3
     number of electrons       =       239.00
     number of Kohn-Sham states=          144
     kinetic-energy cutoff     =      30.0000  Ry
     charge density cutoff     =     180.0000  Ry
     scf convergence threshold =      1.0E-07
     mixing beta               =       0.4000
     number of iterations used =            8  plain     mixing
     Exchange-correlation= PBE
                           (   1   4   3   4   0   0   0)

     GPU acceleration is ACTIVE.  1 visible GPUs per MPI rank


     celldm(1)=  18.960262  celldm(2)=   0.000000  celldm(3)=   0.000000
     celldm(4)=   0.000000  celldm(5)=   0.000000  celldm(6)=   0.000000

     crystal axes: (cart. coord. in units of alat)
               a(1) = (   1.000000   0.000000   0.000000 )  
               a(2) = (  -0.500000   0.866025   0.000000 )  
               a(3) = (   0.000000   0.000000   1.806422 )  

     reciprocal axes: (cart. coord. in units 2 pi/alat)
               b(1) = (  1.000000  0.577350 -0.000000 )  
               b(2) = (  0.000000  1.154701  0.000000 )  
               b(3) = (  0.000000 -0.000000  0.553581 )  


     PseudoPot. # 1 for Nb read from file:
     /root/qe_pseudos/Nb.UPF
     MD5 check sum: dcedcbb129af9a7271e4748e5febedb1
     Pseudo is Projector augmented-wave + core cor, Zval = 13.0
     Generated using &quot;atomic&quot; code by A. Dal Corso  v.6.2.2
     Shape of augmentation charge: PSQ
     Using radial grid of 1227 points,  6 beta functions with: 
                l(1) =   0
                l(2) =   0
                l(3) =   1
                l(4) =   1
                l(5) =   2
                l(6) =   2
     Q(r) pseudized with 0 coefficients 


     PseudoPot. # 2 for S  read from file:
     /root/qe_pseudos/S.UPF
     MD5 check sum: fb45dfebcf3e72a4e1bd4a866ec2e262
     Pseudo is Projector augmented-wave + core cor, Zval =  6.0
     Generated using &quot;atomic&quot; code by A. Dal Corso  v.6.3
     Shape of augmentation charge: PSQ
     Using radial grid of 1151 points,  6 beta functions with: 
                l(1) =   0
                l(2) =   0
                l(3) =   1
                l(4) =   1
                l(5) =   2
                l(6) =   2
     Q(r) pseudized with 0 coefficients 


     PseudoPot. # 3 for Sn read from file:
     /root/qe_pseudos/Sn.UPF
     MD5 check sum: 72e22d5a9e1ec4fde6a02e1f963898e9
     Pseudo is Ultrasoft + core correction, Zval = 14.0
     Generated using &quot;atomic&quot; code by A. Dal Corso  v.6.3
     Using radial grid of 1243 points,  6 beta functions with: 
                l(1) =   0
                l(2) =   0
                l(3) =   1
                l(4) =   1
                l(5) =   2
                l(6) =   2
     Q(r) pseudized with 0 coefficients 


     atomic species   valence    mass     pseudopotential
     Nb               13.00    92.90640     Nb( 1.00)
     S                 6.00    32.06000     S ( 1.00)
     Sn               14.00   118.71000     Sn( 1.00)

     No symmetry found



   Cartesian axes

     site n.     atom                  positions (alat units)
         1        Nb     tau(   1) = (   0.3331033   0.5774810   0.9028383  )
         2        Nb     tau(   2) = (   0.4998376   0.2860536   0.9049236  )
         3        Nb     tau(   3) = (   0.6620466  -0.0004431   0.9095785  )
         4        Nb     tau(   4) = (  -0.0019241   0.5815740   0.9095872  )
         5        Nb     tau(   5) = (   0.1713857   0.2850642   0.9014702  )
         6        Nb     tau(   6) = (   0.3346972  -0.0007839   0.9069744  )
         7        Nb     tau(   7) = (   0.0054846  -0.0022844   0.9014506  )
         8        Nb     tau(   8) = (  -0.3311421   0.5787978   0.9049226  )
         9        Nb     tau(   9) = (  -0.1738676   0.2928205   0.8899274  )
        10        S      tau(  10) = (  -0.1647457   0.6722070   0.7496001  )
        11        S      tau(  11) = (   0.5001749   0.6733716   1.0574869  )
        12        S      tau(  12) = (   0.1696120   0.0945082   1.0592503  )
        13        S      tau(  13) = (   0.6598017   0.3888658   0.7448124  )
        14        S      tau(  14) = (   0.6671308   0.3846295   1.0565633  )
        15        S      tau(  15) = (   0.1682494   0.0953246   0.7463772  )
        16        S      tau(  16) = (   0.8320559   0.0921576   0.7513750  )
        17        S      tau(  17) = (   0.8387133   0.0885037   1.0757319  )
        18        S      tau(  18) = (   0.1649473   0.6745657   0.7509041  )
        19        S      tau(  19) = (   0.1659083   0.6740107   1.0621036  )
        20        S      tau(  20) = (   0.0094313   0.3841993   1.0758049  )
        21        S      tau(  21) = (   0.3340770   0.3835640   0.7479585  )
        22        S      tau(  22) = (   0.5015167   0.6735953   0.7479604  )
        23        S      tau(  23) = (   0.0028914   0.3880324   0.7513923  )
        24        S      tau(  24) = (   0.5021470   0.0952494   0.7495993  )
        25        S      tau(  25) = (   0.4980699   0.0963240   1.0629598  )
        26        S      tau(  26) = (  -0.1677172   0.6752052   1.0629612  )
        27        S      tau(  27) = (   0.3335965   0.3848532   1.0574887  )
        28        Sn     tau(  28) = (  -0.0988150   0.2493952   1.0931312  )

     number of k points=     1  Methfessel-Paxton smearing, width (Ry)=  0.0100
                       cart. coord. in units 2pi/alat
        k(    1) = (   0.0000000   0.0000000   0.0000000), wk =   2.0000000

     Dense  grid:   435105 G-vectors     FFT dimensions: (  81,  81, 150)

     Smooth grid:   236543 G-vectors     FFT dimensions: (  72,  72, 120)

     Estimated max dynamical RAM per process >       2.10 GB

     Check: negative core charge=   -0.000003

     Initial potential from superposition of free atoms

     starting charge     238.9862, renormalised to     239.0000

     negative rho (up, down):  1.409E-02 0.000E+00
     Starting wfcs are  198 randomized atomic wfcs
     Checking if some PAW data can be deallocated... 

     total cpu time spent up to now is       21.4 secs

     Self-consistent Calculation

     iteration #  1     ecut=    30.00 Ry     beta= 0.40
     Davidson diagonalization with overlap
     ethr =  1.00E-02,  avg # of iterations =  3.0

     Threshold (ethr) on eigenvalues was too large:
     Diagonalizing with lowered threshold

     Davidson diagonalization with overlap
     ethr =  6.23E-04,  avg # of iterations =  2.0

     negative rho (up, down):  1.600E-02 0.000E+00

     total cpu time spent up to now is       33.7 secs

     total energy              =   -4364.25632864 Ry
     estimated scf accuracy    <       1.69113196 Ry

     iteration #  2     ecut=    30.00 Ry     beta= 0.40
     Davidson diagonalization with overlap
     ethr =  7.08E-04,  avg # of iterations =  5.0

     negative rho (up, down):  1.715E-02 0.000E+00

     total cpu time spent up to now is       45.5 secs

     total energy              =   -4364.26924370 Ry
     estimated scf accuracy    <       1.58929284 Ry

     iteration #  3     ecut=    30.00 Ry     beta= 0.40
     Davidson diagonalization with overlap
     ethr =  6.65E-04,  avg # of iterations =  2.0

     negative rho (up, down):  1.787E-02 0.000E+00

     total cpu time spent up to now is       57.2 secs

     total energy              =   -4364.50119596 Ry
     estimated scf accuracy    <       0.85807083 Ry

     iteration #  4     ecut=    30.00 Ry     beta= 0.40
     Davidson diagonalization with overlap
     ethr =  3.59E-04,  avg # of iterations =  2.0

     negative rho (up, down):  1.832E-02 0.000E+00

     total cpu time spent up to now is       69.0 secs

     total energy              =   -4364.57656114 Ry
     estimated scf accuracy    <       0.28331708 Ry

     iteration #  5     ecut=    30.00 Ry     beta= 0.40
     Davidson diagonalization with overlap
     ethr =  1.19E-04,  avg # of iterations =  2.0

     negative rho (up, down):  1.861E-02 0.000E+00

     total cpu time spent up to now is       80.8 secs

     total energy              =   -4364.60937909 Ry
     estimated scf accuracy    <       0.02158662 Ry

     iteration #  6     ecut=    30.00 Ry     beta= 0.40
     Davidson diagonalization with overlap
     ethr =  9.03E-06,  avg # of iterations =  8.0

     negative rho (up, down):  1.878E-02 0.000E+00

     total cpu time spent up to now is       92.7 secs

     total energy              =   -4364.61015575 Ry
     estimated scf accuracy    <       0.02603209 Ry

     iteration #  7     ecut=    30.00 Ry     beta= 0.40
     Davidson diagonalization with overlap
     ethr =  9.03E-06,  avg # of iterations =  2.0

     negative rho (up, down):  1.891E-02 0.000E+00

     total cpu time spent up to now is      104.5 secs

     total energy              =   -4364.61342754 Ry
     estimated scf accuracy    <       0.00733573 Ry

     iteration #  8     ecut=    30.00 Ry     beta= 0.40
     Davidson diagonalization with overlap
     ethr =  3.07E-06,  avg # of iterations =  2.0

     negative rho (up, down):  1.898E-02 0.000E+00

     total cpu time spent up to now is      116.2 secs

     total energy              =   -4364.61402813 Ry
     estimated scf accuracy    <       0.00119482 Ry

     iteration #  9     ecut=    30.00 Ry     beta= 0.40
     Davidson diagonalization with overlap
     ethr =  5.00E-07,  avg # of iterations =  2.0

     negative rho (up, down):  1.902E-02 0.000E+00

     total cpu time spent up to now is      128.0 secs

     total energy              =   -4364.61417214 Ry
     estimated scf accuracy    <       0.00051489 Ry

     iteration # 10     ecut=    30.00 Ry     beta= 0.40
     Davidson diagonalization with overlap
     ethr =  2.15E-07,  avg # of iterations =  2.0

     negative rho (up, down):  1.904E-02 0.000E+00

     total cpu time spent up to now is      139.8 secs

     total energy              =   -4364.61423561 Ry
     estimated scf accuracy    <       0.00014320 Ry

     iteration # 11     ecut=    30.00 Ry     beta= 0.40
     Davidson diagonalization with overlap
     ethr =  5.99E-08,  avg # of iterations =  2.0

     negative rho (up, down):  1.905E-02 0.000E+00

     total cpu time spent up to now is      151.5 secs

     total energy              =   -4364.61425565 Ry
     estimated scf accuracy    <       0.00001646 Ry

     iteration # 12     ecut=    30.00 Ry     beta= 0.40
     Davidson diagonalization with overlap
     ethr =  6.89E-09,  avg # of iterations =  5.0

     negative rho (up, down):  1.906E-02 0.000E+00

     total cpu time spent up to now is      163.4 secs

     total energy              =   -4364.61425777 Ry
     estimated scf accuracy    <       0.00000608 Ry

     iteration # 13     ecut=    30.00 Ry     beta= 0.40
     Davidson diagonalization with overlap
     ethr =  2.54E-09,  avg # of iterations =  3.0

     negative rho (up, down):  1.906E-02 0.000E+00

     total cpu time spent up to now is      175.1 secs

     total energy              =   -4364.61425834 Ry
     estimated scf accuracy    <       0.00001438 Ry

     iteration # 14     ecut=    30.00 Ry     beta= 0.40
     Davidson diagonalization with overlap
     ethr =  2.54E-09,  avg # of iterations =  2.0

     negative rho (up, down):  1.906E-02 0.000E+00

     total cpu time spent up to now is      186.8 secs

     total energy              =   -4364.61425963 Ry
     estimated scf accuracy    <       0.00000042 Ry

     iteration # 15     ecut=    30.00 Ry     beta= 0.40
     Davidson diagonalization with overlap
     ethr =  1.78E-10,  avg # of iterations =  5.0

     negative rho (up, down):  1.906E-02 0.000E+00

     total cpu time spent up to now is      198.7 secs

     total energy              =   -4364.61425968 Ry
     estimated scf accuracy    <       0.00000084 Ry

     iteration # 16     ecut=    30.00 Ry     beta= 0.40
     Davidson diagonalization with overlap
     ethr =  1.78E-10,  avg # of iterations =  2.0

     negative rho (up, down):  1.907E-02 0.000E+00

     total cpu time spent up to now is      210.5 secs

     total energy              =   -4364.61425975 Ry
     estimated scf accuracy    <       0.00000012 Ry

     iteration # 17     ecut=    30.00 Ry     beta= 0.40
     Davidson diagonalization with overlap
     ethr =  5.00E-11,  avg # of iterations =  2.0

     negative rho (up, down):  1.907E-02 0.000E+00

     total cpu time spent up to now is      222.3 secs

     End of self-consistent calculation

          k = 0.0000 0.0000 0.0000 ( 29687 PWs)   bands (ev):

   -55.4205 -55.3736 -55.3626 -55.3088 -55.2976 -55.2545 -55.2326 -55.2124
   -55.2075 -32.1755 -31.6071 -31.5705 -31.5601 -31.5416 -31.5322 -31.5222
   -31.5044 -31.4986 -31.4580 -31.4473 -31.4326 -31.4205 -31.3974 -31.3776
   -31.3337 -31.3196 -31.3103 -31.3040 -31.2926 -31.2666 -31.2664 -31.2503
   -31.2477 -31.2281 -31.2159 -31.2086 -26.9150 -25.0502 -24.8882 -24.0867
   -24.0335 -16.3069 -15.9602 -13.7247 -13.2368 -12.9195 -12.8115 -12.8057
   -12.6854 -12.6006 -12.5799 -12.4127 -12.3300 -12.2858 -12.2792 -12.2647
   -12.2431 -12.0721 -12.0608  -8.6221  -7.1032  -6.8436  -6.7776  -5.4641
    -5.4336  -5.2553  -5.1599  -5.1351  -5.1149  -4.9386  -4.8778  -4.7316
    -4.5317  -4.5273  -4.3690  -4.1951  -4.1661  -4.1383  -4.0228  -3.9872
    -3.9616  -3.9251  -3.8953  -3.8823  -3.7660  -3.7610  -3.5860  -3.3886
    -3.2907  -3.1231  -3.0641  -2.9909  -2.9718  -2.9302  -2.8239  -2.7836
    -2.7809  -2.5356  -2.3032  -2.1933  -2.0830  -2.0625  -2.0068  -1.9097
    -1.8629  -1.8542  -1.8155  -1.8006  -1.7602  -1.6917  -1.6696  -1.6428
    -1.6294  -1.1099  -0.8957  -0.7384  -0.7014  -0.6541  -0.6169  -0.0728
     0.0861   0.2183   0.7655   1.0322   1.4321   1.5052   1.7025   2.0951
     2.1142   2.2720   2.2935   2.3764   2.4216   2.4568   2.5036   2.5316
     2.5607   2.6446   2.6505   2.6816   2.7311   2.8107   2.8410   2.9257

     the Fermi energy is    -0.0665 ev

!    total energy              =   -4364.61425974 Ry
     estimated scf accuracy    <       0.00000003 Ry
     smearing contrib. (-TS)   =      -0.00131342 Ry
     internal energy E=F+TS    =   -4364.61294632 Ry

     The total energy is F=E-TS. E is the sum of the following terms:
     one-electron contribution =   -7899.04989701 Ry
     hartree contribution      =    3980.22638921 Ry
     xc contribution           =    -307.91101867 Ry
     ewald contribution        =    2661.55208171 Ry
     one-center paw contrib.   =   -2799.43050156 Ry

     convergence has been achieved in  17 iterations

     negative rho (up, down):  1.907E-02 0.000E+00

     Forces acting on atoms (cartesian axes, Ry/au):

     atom    1 type  1   force =    -0.01239356    0.00711632    0.00200573
     atom    2 type  1   force =     0.00214206   -0.01034626   -0.00629814
     atom    3 type  1   force =    -0.00311613   -0.00894089   -0.01581595
     atom    4 type  1   force =     0.00614604    0.00720139   -0.01586818
     atom    5 type  1   force =     0.00041265    0.01027334    0.00007077
     atom    6 type  1   force =     0.00526228   -0.00307838   -0.00347961
     atom    7 type  1   force =    -0.00852628   -0.00551758    0.00003224
     atom    8 type  1   force =     0.00999853    0.00341010   -0.00627904
     atom    9 type  1   force =    -0.13572232    0.07863122   -0.40040045
     atom   10 type  2   force =    -0.00308118    0.00085537   -0.00069050
     atom   11 type  2   force =     0.00208103    0.00175723    0.00458844
     atom   12 type  2   force =     0.00284972   -0.00160998    0.00924367
     atom   13 type  2   force =     0.00000928   -0.00001955   -0.00007029
     atom   14 type  2   force =    -0.01249425    0.00723998    0.01102093
     atom   15 type  2   force =     0.00501552   -0.00292000   -0.00319390
     atom   16 type  2   force =    -0.00554170   -0.00076530   -0.00140640
     atom   17 type  2   force =    -0.46051311   -1.14306452   -0.12123340
     atom   18 type  2   force =    -0.00002746    0.00002670    0.00154877
     atom   19 type  2   force =     0.00874892   -0.00499523    0.00191835
     atom   20 type  2   force =     0.75075235    0.95948173   -0.11914794
     atom   21 type  2   force =    -0.00399760   -0.00102505   -0.00141495
     atom   22 type  2   force =    -0.00107697    0.00395007   -0.00145112
     atom   23 type  2   force =    -0.00215460    0.00516950   -0.00137119
     atom   24 type  2   force =    -0.00229231    0.00222415   -0.00069822
     atom   25 type  2   force =     0.00191016    0.00402677    0.00250627
     atom   26 type  2   force =    -0.00253485   -0.00369273    0.00249515
     atom   27 type  2   force =    -0.00045675   -0.00270533    0.00459987
     atom   28 type  3   force =    -0.14139948    0.09731694    0.65878909

     Total force =     1.918971     Total SCF correction =     0.000547


     Computing stress (Cartesian axis) and pressure


     negative rho (up, down):  1.907E-02 0.000E+00
          total   stress  (Ry/bohr**3)                   (kbar)     P=      -25.52
  -0.00026224   0.00029869   0.00004870          -38.58       43.94        7.16
   0.00029869   0.00008420  -0.00002749           43.94       12.39       -4.04
   0.00004870  -0.00002749  -0.00034231            7.16       -4.04      -50.35


     Writing all to output data dir /root/qe_scratch/cand022_A_NbS2_Sn.save/ :
     XML data file, charge density, pseudopotentials, collected wavefunctions
 
     init_run     :     15.76s CPU     20.42s WALL (       1 calls)
     electrons    :    163.97s CPU    200.89s WALL (       1 calls)
     forces       :      0.30s CPU      0.34s WALL (       1 calls)
     stress       :      0.79s CPU      0.83s WALL (       1 calls)

     Called by init_run:
     wfcinit      :      0.27s CPU      0.43s WALL (       1 calls)
     potinit      :     14.75s CPU     18.97s WALL (       1 calls)
     hinit0       :      0.53s CPU      0.61s WALL (       1 calls)

     Called by electrons:
     c_bands      :      4.77s CPU      4.78s WALL (      18 calls)
     sum_band     :      1.62s CPU      1.64s WALL (      18 calls)
     v_of_rho     :      1.34s CPU      1.80s WALL (      18 calls)
     newd         :      0.95s CPU      1.05s WALL (      18 calls)
                                        1.05s GPU  (      18 calls)
     PAW_pot      :    161.76s CPU    199.82s WALL (      18 calls)
     mix_rho      :      0.58s CPU      0.61s WALL (      18 calls)

     Called by c_bands:
     init_us_2    :      0.04s CPU      0.04s WALL (      37 calls)
     cegterg      :      4.62s CPU      4.63s WALL (      18 calls)

     Called by *egterg:
     cdiaghg      :      0.70s CPU      0.70s WALL (      70 calls)
                                        0.70s GPU  (      70 calls)
     h_psi        :      2.30s CPU      2.46s WALL (      72 calls)
                                        2.46s GPU  (      72 calls)
     s_psi        :      0.09s CPU      0.09s WALL (      72 calls)
     g_psi        :      0.00s CPU      0.01s WALL (      53 calls)
                                        0.01s GPU  (      53 calls)

     Called by h_psi:
     h_psi:calbec :      0.12s CPU      0.81s WALL (      72 calls)
                                        0.81s GPU  (      72 calls)
     vloc_psi     :      1.01s CPU      1.03s WALL (      72 calls)
                                        1.03s GPU  (      72 calls)
     add_vuspsi   :      0.09s CPU      0.61s WALL (      72 calls)
                                        0.61s GPU  (      72 calls)

     General routines
     calbec       :      0.12s CPU      0.26s WALL (      95 calls)
     fft          :      5.30s CPU      7.31s WALL (     258 calls)
                                        0.04s GPU  (     240 calls)
     ffts         :      1.95s CPU      2.44s WALL (      36 calls)
                                        0.00s GPU  (      18 calls)
     fftw         :      0.02s CPU      1.01s WALL (     972 calls)
                                        1.01s GPU  (     972 calls)
     interpolate  :      7.34s CPU      9.82s WALL (      18 calls)
 
     Parallel routines
 
     PWSCF        :   3m 1.92s CPU   3m43.72s WALL

 
   This run was terminated on:  12:44:35   6May2026            

=------------------------------------------------------------------------------=
   JOB DONE.
=------------------------------------------------------------------------------=
Warning: ieee_invalid is signaling
Warning: ieee_divide_by_zero is signaling
Warning: ieee_inexact is signaling
FORTRAN STOP
