--------------------------------------------------------------------------
WARNING: Open MPI tried to bind a process but failed.  This is a
warning only; your job will continue, though performance may
be degraded.

  Local host:        3253031b5b37
  Application name:  /root/qe-7.3.1/bin/pw.x
  Error message:     failed to bind memory
  Location:          ../../../../../orte/mca/rtc/hwloc/rtc_hwloc.c:447

--------------------------------------------------------------------------

     Program PWSCF v.7.3.1 starts on  6May2026 at 16:25:25 

     This program is part of the open-source Quantum ESPRESSO suite
     for quantum simulation of materials; please cite
         "P. Giannozzi et al., J. Phys.:Condens. Matter 21 395502 (2009);
         "P. Giannozzi et al., J. Phys.:Condens. Matter 29 465901 (2017);
         "P. Giannozzi et al., J. Chem. Phys. 152 154105 (2020);
          URL http://www.quantum-espresso.org", 
     in publications or presentations arising from this work. More details at
     http://www.quantum-espresso.org/quote

     Parallel version (MPI & OpenMP), running on       8 processor cores
     Number of MPI processes:                 1
     Threads/MPI process:                     8

     MPI processes distributed on     1 nodes
     81259 MiB available memory on the printing compute node when the environment starts
 
     Reading input from cand169_A_Ti2CO2_In.in

     Current dimensions of program PWSCF are:
     Max number of different atomic species (ntypx) = 10
     Max number of k-points (npk) =  40000
     Max angular momentum in pseudopotentials (lmaxx) =  4
     file In.UPF: wavefunction(s)  5S 4D renormalized
     file Ti.UPF: wavefunction(s)  3S 3P 3D renormalized
 
     Subspace diagonalization in iterative solution of the eigenvalue problem:
     a serial algorithm will be used

 
     G-vector sticks info
     --------------------
     sticks:   dense  smooth     PW     G-vecs:    dense   smooth      PW
     Sum        6505    4339   1069               681217   370707   46193
 
     Using Slab Decomposition
 


     bravais-lattice index     =            0
     lattice parameter (alat)  =      22.9196  a.u.
     unit-cell volume          =   16700.1634 (a.u.)^3
     number of atoms/cell      =           81
     number of atomic types    =            4
     number of electrons       =       653.00
     number of Kohn-Sham states=          392
     kinetic-energy cutoff     =      30.0000  Ry
     charge density cutoff     =     180.0000  Ry
     scf convergence threshold =      1.0E-07
     mixing beta               =       0.4000
     number of iterations used =            8  plain     mixing
     Exchange-correlation= SLA  PW   PBX  PBC
                           (   1   4   3   4   0   0   0)

     GPU acceleration is ACTIVE.  1 visible GPUs per MPI rank


     celldm(1)=  22.919623  celldm(2)=   0.000000  celldm(3)=   0.000000
     celldm(4)=   0.000000  celldm(5)=   0.000000  celldm(6)=   0.000000

     crystal axes: (cart. coord. in units of alat)
               a(1) = (   1.000000   0.000000   0.000000 )  
               a(2) = (  -0.500000   0.866025   0.000000 )  
               a(3) = (   0.000000   0.000000   1.601650 )  

     reciprocal axes: (cart. coord. in units 2 pi/alat)
               b(1) = (  1.000000  0.577350 -0.000000 )  
               b(2) = (  0.000000  1.154701  0.000000 )  
               b(3) = (  0.000000 -0.000000  0.624356 )  


     PseudoPot. # 1 for C  read from file:
     /root/qe_pseudos/C.UPF
     MD5 check sum: 9b35a7431356f8229172919cb1fa74b8
     Pseudo is Norm-conserving, Zval =  4.0
     Generated by new atomic code, or converted to UPF format
     Using radial grid of 1073 points,  1 beta functions with: 
                l(1) =   0

     PseudoPot. # 2 for In read from file:
     /root/qe_pseudos/In.UPF
     MD5 check sum: 7267d4f9f57825930b619e54710f1f3b
     Pseudo is Ultrasoft + core correction, Zval = 13.0
     Generated using &quot;atomic&quot; code by A. Dal Corso  v.6.3
     Using radial grid of 1241 points,  6 beta functions with: 
                l(1) =   0
                l(2) =   0
                l(3) =   1
                l(4) =   1
                l(5) =   2
                l(6) =   2
     Q(r) pseudized with 0 coefficients 


     PseudoPot. # 3 for O  read from file:
     /root/qe_pseudos/O.UPF
     MD5 check sum: c7f41d994d4e90c1781f5cd713c45011
     Pseudo is Projector augmented-wave + core cor, Zval =  6.0
     Generated using "atomic" code by A. Dal Corso (espresso distribution)
     Shape of augmentation charge: BESSEL
     Using radial grid of 1095 points,  4 beta functions with: 
                l(1) =   0
                l(2) =   0
                l(3) =   1
                l(4) =   1
     Q(r) pseudized with 0 coefficients 


     PseudoPot. # 4 for Ti read from file:
     /root/qe_pseudos/Ti.UPF
     MD5 check sum: 01f69b0d8ba4438b2e03ac6ea4af1c0b
     Pseudo is Projector augmented-wave + core cor, Zval = 12.0
     Generated using &quot;atomic&quot; code by A. Dal Corso  v.6.2.2
     Shape of augmentation charge: PSQ
     Using radial grid of 1177 points,  6 beta functions with: 
                l(1) =   0
                l(2) =   0
                l(3) =   1
                l(4) =   1
                l(5) =   2
                l(6) =   2
     Q(r) pseudized with 0 coefficients 


     atomic species   valence    mass     pseudopotential
     C                 4.00    12.01100     C ( 1.00)
     In               13.00   114.81800     In( 1.00)
     O                 6.00    15.99900     O ( 1.00)
     Ti               12.00    47.86700     Ti( 1.00)

     No symmetry found



   Cartesian axes

     site n.     atom                  positions (alat units)
         1        C      tau(   1) = (   0.1249188   0.6499129   0.8017710  )
         2        C      tau(   2) = (   0.2497002   0.4329782   0.8015083  )
         3        C      tau(   3) = (   0.0013343  -0.0001803   0.7965345  )
         4        C      tau(   4) = (   0.3753360   0.2158560   0.8014691  )
         5        C      tau(   5) = (   0.7494872  -0.0014052   0.7995173  )
         6        C      tau(   6) = (   0.3737900   0.6497823   0.7994387  )
         7        C      tau(   7) = (   0.4999722  -0.0009064   0.8013069  )
         8        C      tau(   8) = (  -0.1244642   0.2177356   0.7994139  )
         9        C      tau(   9) = (  -0.1251317   0.6495064   0.8021058  )
        10        C      tau(  10) = (  -0.0000586   0.4328371   0.8019206  )
        11        C      tau(  11) = (   0.6257128   0.2157144   0.8009463  )
        12        C      tau(  12) = (   0.1241309   0.2166367   0.8012095  )
        13        C      tau(  13) = (  -0.2492027   0.4335097   0.8010627  )
        14        C      tau(  14) = (   0.2499194  -0.0008014   0.8014235  )
        15        C      tau(  15) = (  -0.3742097   0.6492817   0.7997662  )
        16        C      tau(  16) = (   0.5001909   0.4335933   0.8009429  )
        17        O      tau(  17) = (  -0.1234682   0.5060488   0.6181766  )
        18        O      tau(  18) = (  -0.1250693   0.7945856   0.9836062  )
        19        O      tau(  19) = (  -0.0007331   0.7204492   0.6189406  )
        20        O      tau(  20) = (   0.5001006   0.7194885   0.6157836  )
        21        O      tau(  21) = (   0.7463851   0.1462507   0.9860471  )
        22        O      tau(  22) = (   0.4999572   0.1445103   0.9837096  )
        23        O      tau(  23) = (   0.6233818   0.0726057   0.6188243  )
        24        O      tau(  24) = (  -0.1251383   0.3601303   0.9840684  )
        25        O      tau(  25) = (   0.1281523   0.0741461   0.6163491  )
        26        O      tau(  26) = (   0.3754952   0.3607461   0.9838949  )
        27        O      tau(  27) = (   0.4998910   0.2883867   0.6197260  )
        28        O      tau(  28) = (   0.2470808   0.7199492   0.6169612  )
        29        O      tau(  29) = (   0.3753654   0.7919149   0.9919057  )
        30        O      tau(  30) = (   0.2508844   0.5774315   0.9838792  )
        31        O      tau(  31) = (   0.3744967   0.5036101   0.6185398  )
        32        O      tau(  32) = (   0.0033997   0.1428541   0.9902424  )
        33        O      tau(  33) = (   0.5000394   0.5748048   0.9847660  )
        34        O      tau(  34) = (   0.8736566   0.0731561   0.6159089  )
        35        O      tau(  35) = (   0.7493030   0.2895528   0.6181769  )
        36        O      tau(  36) = (  -0.3757893   0.7969653   0.9899836  )
        37        O      tau(  37) = (  -0.2470495   0.7213302   0.6175998  )
        38        O      tau(  38) = (  -0.2506540   0.5774672   0.9839436  )
        39        O      tau(  39) = (   0.2505590   0.1441140   0.9837039  )
        40        O      tau(  40) = (   0.3753011   0.0720146   0.6192684  )
        41        O      tau(  41) = (   0.1236323   0.5051283   0.6185349  )
        42        O      tau(  42) = (   0.6244734   0.3606052   0.9830807  )
        43        O      tau(  43) = (   0.1253904   0.3604643   0.9838101  )
        44        O      tau(  44) = (   0.1256118   0.7945312   0.9841906  )
        45        O      tau(  45) = (   0.2499056   0.2888345   0.6194117  )
        46        O      tau(  46) = (   0.0013245   0.2913879   0.6173643  )
        47        O      tau(  47) = (   0.0001666   0.5774413   0.9835165  )
        48        O      tau(  48) = (   0.6253355   0.5039489   0.6179019  )
        49        Ti     tau(  49) = (   0.4982494   0.7222314   0.8944902  )
        50        Ti     tau(  50) = (   0.8755397   0.0704040   0.8929176  )
        51        Ti     tau(  51) = (   0.3749821   0.7945517   0.6954423  )
        52        Ti     tau(  52) = (   0.7505154   0.2869371   0.9080004  )
        53        Ti     tau(  53) = (   0.7502059   0.1444669   0.6926967  )
        54        Ti     tau(  54) = (   0.4998822   0.5784003   0.6935007  )
        55        Ti     tau(  55) = (   0.6242944   0.5063219   0.9073039  )
        56        Ti     tau(  56) = (   0.6246349   0.3613529   0.6929209  )
        57        Ti     tau(  57) = (  -0.0001596   0.1418761   0.6961375  )
        58        Ti     tau(  58) = (   0.1275730   0.7936226   0.7004576  )
        59        Ti     tau(  59) = (   0.1257438   0.0727206   0.9058561  )
        60        Ti     tau(  60) = (  -0.1247682   0.3587514   0.6979521  )
        61        Ti     tau(  61) = (   0.0003479   0.2863292   0.9084459  )
        62        Ti     tau(  62) = (  -0.2503624   0.5778067   0.6959356  )
        63        Ti     tau(  63) = (  -0.1253183   0.5048690   0.9076752  )
        64        Ti     tau(  64) = (  -0.3770250   0.7940274   0.6957541  )
        65        Ti     tau(  65) = (  -0.2508581   0.7229755   0.9079026  )
        66        Ti     tau(  66) = (   0.2494795   0.1441205   0.6922846  )
        67        Ti     tau(  67) = (   0.3745120   0.0718920   0.9059445  )
        68        Ti     tau(  68) = (   0.2530498   0.7245134   0.9089797  )
        69        Ti     tau(  69) = (   0.1228620   0.3610579   0.6936770  )
        70        Ti     tau(  70) = (  -0.0009251   0.5771396   0.6926827  )
        71        Ti     tau(  71) = (   0.1243359   0.5062889   0.9070138  )
        72        Ti     tau(  72) = (  -0.1251728   0.7929794   0.6932917  )
        73        Ti     tau(  73) = (   0.0001135   0.7217934   0.9063679  )
        74        Ti     tau(  74) = (   0.6268374   0.0736395   0.9104792  )
        75        Ti     tau(  75) = (   0.3744465   0.3616613   0.6943623  )
        76        Ti     tau(  76) = (   0.4997562   0.2888820   0.9100555  )
        77        Ti     tau(  77) = (   0.2507614   0.5794139   0.6962552  )
        78        Ti     tau(  78) = (   0.3755897   0.5060977   0.9092215  )
        79        Ti     tau(  79) = (   0.2488962   0.2897206   0.9068658  )
        80        Ti     tau(  80) = (   0.5009897   0.1436925   0.6945257  )
        81        In     tau(  81) = (  -0.0018226  -0.0004779   1.1289756  )

     number of k points=     1  Methfessel-Paxton smearing, width (Ry)=  0.0100
                       cart. coord. in units 2pi/alat
        k(    1) = (   0.0000000   0.0000000   0.0000000), wk =   2.0000000

     Dense  grid:   681217 G-vectors     FFT dimensions: ( 100, 100, 160)

     Smooth grid:   370707 G-vectors     FFT dimensions: (  80,  80, 135)

     Estimated max dynamical RAM per process >       4.16 GB

     Check: negative core charge=   -0.000044

     Initial potential from superposition of free atoms

     starting charge     644.9492, renormalised to     653.0000

     negative rho (up, down):  4.277E-02 0.000E+00
     Starting wfcs are  585 randomized atomic wfcs
     Checking if some PAW data can be deallocated... 

     total cpu time spent up to now is       26.8 secs

     Self-consistent Calculation

     iteration #  1     ecut=    30.00 Ry     beta= 0.40
     Davidson diagonalization with overlap
     ethr =  1.00E-02,  avg # of iterations =  3.0

     negative rho (up, down):  3.878E-02 0.000E+00

     total cpu time spent up to now is       46.6 secs

     total energy              =   -7520.46663066 Ry
     estimated scf accuracy    <      56.93414280 Ry

     iteration #  2     ecut=    30.00 Ry     beta= 0.40
     Davidson diagonalization with overlap
     ethr =  8.72E-03,  avg # of iterations =  5.0

     negative rho (up, down):  5.781E-02 0.000E+00

     total cpu time spent up to now is       66.8 secs

     total energy              =   -7526.68288080 Ry
     estimated scf accuracy    <      40.30092794 Ry

     iteration #  3     ecut=    30.00 Ry     beta= 0.40
     Davidson diagonalization with overlap
     ethr =  6.17E-03,  avg # of iterations =  6.0

     negative rho (up, down):  1.454E-01 0.000E+00

     total cpu time spent up to now is       86.6 secs

     total energy              =   -7519.28563409 Ry
     estimated scf accuracy    <     338.17923253 Ry

     iteration #  4     ecut=    30.00 Ry     beta= 0.40
     Davidson diagonalization with overlap
     ethr =  6.17E-03,  avg # of iterations =  2.0

     negative rho (up, down):  9.758E-02 0.000E+00

     total cpu time spent up to now is      106.1 secs

     total energy              =   -7537.21144822 Ry
     estimated scf accuracy    <       4.57522119 Ry

     iteration #  5     ecut=    30.00 Ry     beta= 0.40
     Davidson diagonalization with overlap
     ethr =  7.01E-04,  avg # of iterations =  6.0

     negative rho (up, down):  9.660E-02 0.000E+00

     total cpu time spent up to now is      125.8 secs

     total energy              =   -7537.37797675 Ry
     estimated scf accuracy    <       1.64752424 Ry

     iteration #  6     ecut=    30.00 Ry     beta= 0.40
     Davidson diagonalization with overlap
     ethr =  2.52E-04,  avg # of iterations = 18.0

     negative rho (up, down):  1.075E-01 0.000E+00

     total cpu time spent up to now is      146.3 secs

     total energy              =   -7537.32796061 Ry
     estimated scf accuracy    <       0.69089722 Ry

     iteration #  7     ecut=    30.00 Ry     beta= 0.40
     Davidson diagonalization with overlap
     ethr =  1.06E-04,  avg # of iterations = 15.0

     negative rho (up, down):  1.348E-01 0.000E+00

     total cpu time spent up to now is      166.9 secs

     total energy              =   -7537.38208984 Ry
     estimated scf accuracy    <       0.37842218 Ry

     iteration #  8     ecut=    30.00 Ry     beta= 0.40
     Davidson diagonalization with overlap
     ethr =  5.80E-05,  avg # of iterations = 19.0

     negative rho (up, down):  1.757E-01 0.000E+00

     total cpu time spent up to now is      187.8 secs

     total energy              =   -7537.40280087 Ry
     estimated scf accuracy    <       0.36204714 Ry

     iteration #  9     ecut=    30.00 Ry     beta= 0.40
     Davidson diagonalization with overlap
     ethr =  5.54E-05,  avg # of iterations =  2.0

     negative rho (up, down):  2.288E-01 0.000E+00

     total cpu time spent up to now is      207.1 secs

     total energy              =   -7537.42544268 Ry
     estimated scf accuracy    <       0.08453466 Ry

     iteration # 10     ecut=    30.00 Ry     beta= 0.40
     Davidson diagonalization with overlap
     ethr =  1.29E-05,  avg # of iterations = 19.0

     negative rho (up, down):  2.863E-01 0.000E+00

     total cpu time spent up to now is      228.0 secs

     total energy              =   -7537.43098093 Ry
     estimated scf accuracy    <       0.03183162 Ry

     iteration # 11     ecut=    30.00 Ry     beta= 0.40
     Davidson diagonalization with overlap
     c_bands:  2 eigenvalues not converged
     ethr =  4.87E-06,  avg # of iterations = 20.0

     negative rho (up, down):  3.477E-01 0.000E+00

     total cpu time spent up to now is      248.9 secs

     total energy              =   -7537.44160371 Ry
     estimated scf accuracy    <       0.01911346 Ry

     iteration # 12     ecut=    30.00 Ry     beta= 0.40
     Davidson diagonalization with overlap
     c_bands:  1 eigenvalues not converged
     ethr =  2.93E-06,  avg # of iterations = 20.0

     negative rho (up, down):  4.150E-01 0.000E+00

     total cpu time spent up to now is      270.2 secs

     total energy              =   -7537.44665583 Ry
     estimated scf accuracy    <       0.00904954 Ry

     iteration # 13     ecut=    30.00 Ry     beta= 0.40
     Davidson diagonalization with overlap
     ethr =  1.39E-06,  avg # of iterations =  2.0

     negative rho (up, down):  4.703E-01 0.000E+00

     total cpu time spent up to now is      289.7 secs

     total energy              =   -7537.45357863 Ry
     estimated scf accuracy    <       0.00636849 Ry

     iteration # 14     ecut=    30.00 Ry     beta= 0.40
     Davidson diagonalization with overlap
     ethr =  9.75E-07,  avg # of iterations =  5.0

     negative rho (up, down):  5.428E-01 0.000E+00

     total cpu time spent up to now is      309.5 secs

     total energy              =   -7537.45718394 Ry
     estimated scf accuracy    <       0.00324971 Ry

     iteration # 15     ecut=    30.00 Ry     beta= 0.40
     Davidson diagonalization with overlap
     ethr =  4.98E-07,  avg # of iterations =  3.0

     negative rho (up, down):  6.002E-01 0.000E+00

     total cpu time spent up to now is      329.2 secs

     total energy              =   -7537.46394493 Ry
     estimated scf accuracy    <       0.00320813 Ry

     iteration # 16     ecut=    30.00 Ry     beta= 0.40
     Davidson diagonalization with overlap
     ethr =  4.91E-07,  avg # of iterations =  2.0

     negative rho (up, down):  7.197E-01 0.000E+00

     total cpu time spent up to now is      348.6 secs

     total energy              =   -7537.45387324 Ry
     estimated scf accuracy    <       0.00209593 Ry

     iteration # 17     ecut=    30.00 Ry     beta= 0.40
     Davidson diagonalization with overlap
     ethr =  3.21E-07,  avg # of iterations =  2.0

     negative rho (up, down):  7.239E-01 0.000E+00

     total cpu time spent up to now is      368.4 secs

     total energy              =   -7537.46938546 Ry
     estimated scf accuracy    <       0.00085432 Ry

     iteration # 18     ecut=    30.00 Ry     beta= 0.40
     Davidson diagonalization with overlap
     ethr =  1.31E-07,  avg # of iterations =  5.0

     negative rho (up, down):  7.782E-01 0.000E+00

     total cpu time spent up to now is      388.4 secs

     total energy              =   -7537.47330837 Ry
     estimated scf accuracy    <       0.00061112 Ry

     iteration # 19     ecut=    30.00 Ry     beta= 0.40
     Davidson diagonalization with overlap
     ethr =  9.36E-08,  avg # of iterations =  2.0

     negative rho (up, down):  8.326E-01 0.000E+00

     total cpu time spent up to now is      408.1 secs

     total energy              =   -7537.47494704 Ry
     estimated scf accuracy    <       0.00051029 Ry

     iteration # 20     ecut=    30.00 Ry     beta= 0.40
     Davidson diagonalization with overlap
     ethr =  7.81E-08,  avg # of iterations =  3.0

     negative rho (up, down):  8.802E-01 0.000E+00

     total cpu time spent up to now is      427.9 secs

     total energy              =   -7537.47747198 Ry
     estimated scf accuracy    <       0.00167967 Ry

     iteration # 21     ecut=    30.00 Ry     beta= 0.40
     Davidson diagonalization with overlap
     ethr =  7.81E-08,  avg # of iterations =  2.0

     negative rho (up, down):  9.245E-01 0.000E+00

     total cpu time spent up to now is      447.6 secs

     total energy              =   -7537.47942893 Ry
     estimated scf accuracy    <       0.00150201 Ry

     iteration # 22     ecut=    30.00 Ry     beta= 0.40
     Davidson diagonalization with overlap
     ethr =  7.81E-08,  avg # of iterations =  2.0

     negative rho (up, down):  9.671E-01 0.000E+00

     total cpu time spent up to now is      467.2 secs

     total energy              =   -7537.48038851 Ry
     estimated scf accuracy    <       0.00128846 Ry

     iteration # 23     ecut=    30.00 Ry     beta= 0.40
     Davidson diagonalization with overlap
     ethr =  7.81E-08,  avg # of iterations =  2.0

     negative rho (up, down):  1.013E+00 0.000E+00

     total cpu time spent up to now is      486.7 secs

     total energy              =   -7537.47864349 Ry
     estimated scf accuracy    <       0.00140122 Ry

     iteration # 24     ecut=    30.00 Ry     beta= 0.40
     Davidson diagonalization with overlap
     ethr =  7.81E-08,  avg # of iterations =  2.0

     negative rho (up, down):  1.065E+00 0.000E+00

     total cpu time spent up to now is      506.4 secs

     total energy              =   -7537.47328464 Ry
     estimated scf accuracy    <       0.00201553 Ry

     iteration # 25     ecut=    30.00 Ry     beta= 0.40
     Davidson diagonalization with overlap
     ethr =  7.81E-08,  avg # of iterations =  2.0

     negative rho (up, down):  1.091E+00 0.000E+00

     total cpu time spent up to now is      526.2 secs

     total energy              =   -7537.47445529 Ry
     estimated scf accuracy    <       0.00305540 Ry

     iteration # 26     ecut=    30.00 Ry     beta= 0.40
     Davidson diagonalization with overlap
     ethr =  7.81E-08,  avg # of iterations =  2.0

     negative rho (up, down):  1.132E+00 0.000E+00

     total cpu time spent up to now is      545.7 secs

     total energy              =   -7537.46966022 Ry
     estimated scf accuracy    <       0.00286392 Ry

     iteration # 27     ecut=    30.00 Ry     beta= 0.40
     Davidson diagonalization with overlap
     ethr =  7.81E-08,  avg # of iterations =  2.0

     negative rho (up, down):  1.172E+00 0.000E+00

     total cpu time spent up to now is      565.4 secs

     total energy              =   -7537.46365388 Ry
     estimated scf accuracy    <       0.00363664 Ry

     iteration # 28     ecut=    30.00 Ry     beta= 0.40
     Davidson diagonalization with overlap
     ethr =  7.81E-08,  avg # of iterations =  2.0

     negative rho (up, down):  1.269E+00 0.000E+00

     total cpu time spent up to now is      585.0 secs

     total energy              =   -7537.43608179 Ry
     estimated scf accuracy    <       0.00454134 Ry

     iteration # 29     ecut=    30.00 Ry     beta= 0.40
     Davidson diagonalization with overlap
     ethr =  7.81E-08,  avg # of iterations =  4.0

     negative rho (up, down):  1.309E+00 0.000E+00

     total cpu time spent up to now is      605.0 secs

     total energy              =   -7537.42465119 Ry
     estimated scf accuracy    <       0.00836296 Ry

     iteration # 30     ecut=    30.00 Ry     beta= 0.40
     Davidson diagonalization with overlap
     ethr =  7.81E-08,  avg # of iterations =  2.0

     negative rho (up, down):  1.322E+00 0.000E+00

     total cpu time spent up to now is      624.7 secs

     total energy              =   -7537.42249699 Ry
     estimated scf accuracy    <       0.00959316 Ry

     iteration # 31     ecut=    30.00 Ry     beta= 0.40
     Davidson diagonalization with overlap
     ethr =  7.81E-08,  avg # of iterations =  2.0

     negative rho (up, down):  1.171E+00 0.000E+00

     total cpu time spent up to now is      644.2 secs

     total energy              =   -7537.47979527 Ry
     estimated scf accuracy    <       0.00985259 Ry

     iteration # 32     ecut=    30.00 Ry     beta= 0.40
     Davidson diagonalization with overlap
     ethr =  7.81E-08,  avg # of iterations =  4.0

     negative rho (up, down):  1.176E+00 0.000E+00

     total cpu time spent up to now is      664.3 secs

     total energy              =   -7537.48533636 Ry
     estimated scf accuracy    <       0.00226574 Ry

     iteration # 33     ecut=    30.00 Ry     beta= 0.40
     Davidson diagonalization with overlap
     ethr =  7.81E-08,  avg # of iterations =  2.0

     negative rho (up, down):  1.191E+00 0.000E+00

     total cpu time spent up to now is      684.0 secs

     total energy              =   -7537.48690485 Ry
     estimated scf accuracy    <       0.00100124 Ry

     iteration # 34     ecut=    30.00 Ry     beta= 0.40
     Davidson diagonalization with overlap
     ethr =  7.81E-08,  avg # of iterations =  2.0

     negative rho (up, down):  1.207E+00 0.000E+00

     total cpu time spent up to now is      703.7 secs

     total energy              =   -7537.48753125 Ry
     estimated scf accuracy    <       0.00069720 Ry

     iteration # 35     ecut=    30.00 Ry     beta= 0.40
     Davidson diagonalization with overlap
     ethr =  7.81E-08,  avg # of iterations =  2.0

     negative rho (up, down):  1.221E+00 0.000E+00

     total cpu time spent up to now is      723.3 secs

     total energy              =   -7537.48817102 Ry
     estimated scf accuracy    <       0.00057884 Ry

     iteration # 36     ecut=    30.00 Ry     beta= 0.40
     Davidson diagonalization with overlap
     ethr =  7.81E-08,  avg # of iterations =  2.0

     negative rho (up, down):  1.233E+00 0.000E+00

     total cpu time spent up to now is      742.9 secs

     total energy              =   -7537.48888190 Ry
     estimated scf accuracy    <       0.00045240 Ry

     iteration # 37     ecut=    30.00 Ry     beta= 0.40
     Davidson diagonalization with overlap
     ethr =  6.93E-08,  avg # of iterations =  2.0

     negative rho (up, down):  1.245E+00 0.000E+00

     total cpu time spent up to now is      762.4 secs

     total energy              =   -7537.48882708 Ry
     estimated scf accuracy    <       0.00027778 Ry

     iteration # 38     ecut=    30.00 Ry     beta= 0.40
     Davidson diagonalization with overlap
     ethr =  4.25E-08,  avg # of iterations =  2.0

     negative rho (up, down):  1.255E+00 0.000E+00

     total cpu time spent up to now is      782.0 secs

     total energy              =   -7537.48878869 Ry
     estimated scf accuracy    <       0.00033650 Ry

     iteration # 39     ecut=    30.00 Ry     beta= 0.40
     Davidson diagonalization with overlap
     ethr =  4.25E-08,  avg # of iterations =  2.0

     negative rho (up, down):  1.277E+00 0.000E+00

     total cpu time spent up to now is      801.6 secs

     total energy              =   -7537.48416140 Ry
     estimated scf accuracy    <       0.00037613 Ry

     iteration # 40     ecut=    30.00 Ry     beta= 0.40
     Davidson diagonalization with overlap
     ethr =  4.25E-08,  avg # of iterations =  4.0

     negative rho (up, down):  1.282E+00 0.000E+00

     total cpu time spent up to now is      821.4 secs

     total energy              =   -7537.48456032 Ry
     estimated scf accuracy    <       0.00118958 Ry

     iteration # 41     ecut=    30.00 Ry     beta= 0.40
     Davidson diagonalization with overlap
     ethr =  4.25E-08,  avg # of iterations =  6.0

     negative rho (up, down):  1.286E+00 0.000E+00

     total cpu time spent up to now is      841.5 secs

     total energy              =   -7537.48552927 Ry
     estimated scf accuracy    <       0.00127073 Ry

     iteration # 42     ecut=    30.00 Ry     beta= 0.40
     Davidson diagonalization with overlap
     ethr =  4.25E-08,  avg # of iterations =  3.0

     negative rho (up, down):  1.289E+00 0.000E+00

     total cpu time spent up to now is      861.0 secs

     total energy              =   -7537.48644892 Ry
     estimated scf accuracy    <       0.00104543 Ry

     iteration # 43     ecut=    30.00 Ry     beta= 0.40
     Davidson diagonalization with overlap
     ethr =  4.25E-08,  avg # of iterations =  2.0

     negative rho (up, down):  1.292E+00 0.000E+00

     total cpu time spent up to now is      880.7 secs

     total energy              =   -7537.48731011 Ry
     estimated scf accuracy    <       0.00086002 Ry

     iteration # 44     ecut=    30.00 Ry     beta= 0.40
     Davidson diagonalization with overlap
     ethr =  4.25E-08,  avg # of iterations =  2.0

     negative rho (up, down):  1.303E+00 0.000E+00

     total cpu time spent up to now is      900.2 secs

     total energy              =   -7537.48475617 Ry
     estimated scf accuracy    <       0.00090454 Ry

     iteration # 45     ecut=    30.00 Ry     beta= 0.40
     Davidson diagonalization with overlap
     ethr =  4.25E-08,  avg # of iterations =  2.0

     negative rho (up, down):  1.303E+00 0.000E+00

     total cpu time spent up to now is      919.8 secs

     total energy              =   -7537.48612962 Ry
     estimated scf accuracy    <       0.00109008 Ry

     iteration # 46     ecut=    30.00 Ry     beta= 0.40
     Davidson diagonalization with overlap
     ethr =  4.25E-08,  avg # of iterations =  2.0

     negative rho (up, down):  1.309E+00 0.000E+00

     total cpu time spent up to now is      939.3 secs

     total energy              =   -7537.48614235 Ry
     estimated scf accuracy    <       0.00087069 Ry

     iteration # 47     ecut=    30.00 Ry     beta= 0.40
     Davidson diagonalization with overlap
     ethr =  4.25E-08,  avg # of iterations =  2.0

     negative rho (up, down):  1.309E+00 0.000E+00

     total cpu time spent up to now is      958.8 secs

     total energy              =   -7537.48744468 Ry
     estimated scf accuracy    <       0.00101261 Ry

     iteration # 48     ecut=    30.00 Ry     beta= 0.40
     Davidson diagonalization with overlap
     ethr =  4.25E-08,  avg # of iterations =  2.0

     negative rho (up, down):  1.311E+00 0.000E+00

     total cpu time spent up to now is      978.4 secs

     total energy              =   -7537.48865233 Ry
     estimated scf accuracy    <       0.00077209 Ry

     iteration # 49     ecut=    30.00 Ry     beta= 0.40
     Davidson diagonalization with overlap
     ethr =  4.25E-08,  avg # of iterations =  5.0

     negative rho (up, down):  1.310E+00 0.000E+00

     total cpu time spent up to now is      998.5 secs

     total energy              =   -7537.49012320 Ry
     estimated scf accuracy    <       0.00018787 Ry

     iteration # 50     ecut=    30.00 Ry     beta= 0.40
     Davidson diagonalization with overlap
     ethr =  2.88E-08,  avg # of iterations =  2.0

     negative rho (up, down):  1.312E+00 0.000E+00

     total cpu time spent up to now is     1018.2 secs

     total energy              =   -7537.49062414 Ry
     estimated scf accuracy    <       0.00003384 Ry

     iteration # 51     ecut=    30.00 Ry     beta= 0.40
     Davidson diagonalization with overlap
     ethr =  5.18E-09,  avg # of iterations =  5.0

     negative rho (up, down):  1.316E+00 0.000E+00

     total cpu time spent up to now is     1038.4 secs

     total energy              =   -7537.49064658 Ry
     estimated scf accuracy    <       0.00003491 Ry

     iteration # 52     ecut=    30.00 Ry     beta= 0.40
     Davidson diagonalization with overlap
     ethr =  5.18E-09,  avg # of iterations =  5.0

     negative rho (up, down):  1.319E+00 0.000E+00

     total cpu time spent up to now is     1058.2 secs

     total energy              =   -7537.49070700 Ry
     estimated scf accuracy    <       0.00002162 Ry

     iteration # 53     ecut=    30.00 Ry     beta= 0.40
     Davidson diagonalization with overlap
     ethr =  3.31E-09,  avg # of iterations =  5.0

     negative rho (up, down):  1.322E+00 0.000E+00

     total cpu time spent up to now is     1078.0 secs

     total energy              =   -7537.49073804 Ry
     estimated scf accuracy    <       0.00001327 Ry

     iteration # 54     ecut=    30.00 Ry     beta= 0.40
     Davidson diagonalization with overlap
     ethr =  2.03E-09,  avg # of iterations =  3.0

     negative rho (up, down):  1.324E+00 0.000E+00

     total cpu time spent up to now is     1097.7 secs

     total energy              =   -7537.49075909 Ry
     estimated scf accuracy    <       0.00001605 Ry

     iteration # 55     ecut=    30.00 Ry     beta= 0.40
     Davidson diagonalization with overlap
     ethr =  2.03E-09,  avg # of iterations =  2.0

     negative rho (up, down):  1.326E+00 0.000E+00

     total cpu time spent up to now is     1117.3 secs

     total energy              =   -7537.49072332 Ry
     estimated scf accuracy    <       0.00001510 Ry

     iteration # 56     ecut=    30.00 Ry     beta= 0.40
     Davidson diagonalization with overlap
     ethr =  2.03E-09,  avg # of iterations =  2.0

     negative rho (up, down):  1.328E+00 0.000E+00

     total cpu time spent up to now is     1137.0 secs

     total energy              =   -7537.49070980 Ry
     estimated scf accuracy    <       0.00003671 Ry

     iteration # 57     ecut=    30.00 Ry     beta= 0.40
     Davidson diagonalization with overlap
     ethr =  2.03E-09,  avg # of iterations =  2.0

     negative rho (up, down):  1.329E+00 0.000E+00

     total cpu time spent up to now is     1156.6 secs

     total energy              =   -7537.49066157 Ry
     estimated scf accuracy    <       0.00004365 Ry

     iteration # 58     ecut=    30.00 Ry     beta= 0.40
     Davidson diagonalization with overlap
     ethr =  2.03E-09,  avg # of iterations =  2.0

     negative rho (up, down):  1.331E+00 0.000E+00

     total cpu time spent up to now is     1176.1 secs

     total energy              =   -7537.49072279 Ry
     estimated scf accuracy    <       0.00005577 Ry

     iteration # 59     ecut=    30.00 Ry     beta= 0.40
     Davidson diagonalization with overlap
     ethr =  2.03E-09,  avg # of iterations =  2.0

     negative rho (up, down):  1.333E+00 0.000E+00

     total cpu time spent up to now is     1195.9 secs

     total energy              =   -7537.49039194 Ry
     estimated scf accuracy    <       0.00004513 Ry

     iteration # 60     ecut=    30.00 Ry     beta= 0.40
     Davidson diagonalization with overlap
     ethr =  2.03E-09,  avg # of iterations =  2.0

     negative rho (up, down):  1.335E+00 0.000E+00

     total cpu time spent up to now is     1215.5 secs

     total energy              =   -7537.49011182 Ry
     estimated scf accuracy    <       0.00010445 Ry

     iteration # 61     ecut=    30.00 Ry     beta= 0.40
     Davidson diagonalization with overlap
     ethr =  2.03E-09,  avg # of iterations =  2.0

     negative rho (up, down):  1.336E+00 0.000E+00

     total cpu time spent up to now is     1235.1 secs

     total energy              =   -7537.48984742 Ry
     estimated scf accuracy    <       0.00015029 Ry

     iteration # 62     ecut=    30.00 Ry     beta= 0.40
     Davidson diagonalization with overlap
     ethr =  2.03E-09,  avg # of iterations =  2.0

     negative rho (up, down):  1.338E+00 0.000E+00

     total cpu time spent up to now is     1254.7 secs

     total energy              =   -7537.48957485 Ry
     estimated scf accuracy    <       0.00018952 Ry

     iteration # 63     ecut=    30.00 Ry     beta= 0.40
     Davidson diagonalization with overlap
     ethr =  2.03E-09,  avg # of iterations =  2.0

     negative rho (up, down):  1.338E+00 0.000E+00

     total cpu time spent up to now is     1274.2 secs

     total energy              =   -7537.48950174 Ry
     estimated scf accuracy    <       0.00022883 Ry

     iteration # 64     ecut=    30.00 Ry     beta= 0.40
     Davidson diagonalization with overlap
     ethr =  2.03E-09,  avg # of iterations =  2.0

     negative rho (up, down):  1.340E+00 0.000E+00

     total cpu time spent up to now is     1293.8 secs

     total energy              =   -7537.48909356 Ry
     estimated scf accuracy    <       0.00023787 Ry

     iteration # 65     ecut=    30.00 Ry     beta= 0.40
     Davidson diagonalization with overlap
     ethr =  2.03E-09,  avg # of iterations =  2.0

     negative rho (up, down):  1.337E+00 0.000E+00

     total cpu time spent up to now is     1313.4 secs

     total energy              =   -7537.49006254 Ry
     estimated scf accuracy    <       0.00029442 Ry

     iteration # 66     ecut=    30.00 Ry     beta= 0.40
     Davidson diagonalization with overlap
     ethr =  2.03E-09,  avg # of iterations =  2.0

     negative rho (up, down):  1.337E+00 0.000E+00

     total cpu time spent up to now is     1333.4 secs

     total energy              =   -7537.49049102 Ry
     estimated scf accuracy    <       0.00015781 Ry

     iteration # 67     ecut=    30.00 Ry     beta= 0.40
     Davidson diagonalization with overlap
     ethr =  2.03E-09,  avg # of iterations =  2.0

     negative rho (up, down):  1.337E+00 0.000E+00

     total cpu time spent up to now is     1353.0 secs

     total energy              =   -7537.49056408 Ry
     estimated scf accuracy    <       0.00008492 Ry

     iteration # 68     ecut=    30.00 Ry     beta= 0.40
     Davidson diagonalization with overlap
     ethr =  2.03E-09,  avg # of iterations =  2.0

     negative rho (up, down):  1.337E+00 0.000E+00

     total cpu time spent up to now is     1372.6 secs

     total energy              =   -7537.49061468 Ry
     estimated scf accuracy    <       0.00007226 Ry

     iteration # 69     ecut=    30.00 Ry     beta= 0.40
     Davidson diagonalization with overlap
     ethr =  2.03E-09,  avg # of iterations =  2.0

     negative rho (up, down):  1.338E+00 0.000E+00

     total cpu time spent up to now is     1392.0 secs

     total energy              =   -7537.49054474 Ry
     estimated scf accuracy    <       0.00006498 Ry

     iteration # 70     ecut=    30.00 Ry     beta= 0.40
     Davidson diagonalization with overlap
     ethr =  2.03E-09,  avg # of iterations =  2.0

     negative rho (up, down):  1.338E+00 0.000E+00

     total cpu time spent up to now is     1411.5 secs

     total energy              =   -7537.49055831 Ry
     estimated scf accuracy    <       0.00007498 Ry

     iteration # 71     ecut=    30.00 Ry     beta= 0.40
     Davidson diagonalization with overlap
     ethr =  2.03E-09,  avg # of iterations =  2.0

     negative rho (up, down):  1.339E+00 0.000E+00

     total cpu time spent up to now is     1431.1 secs

     total energy              =   -7537.49049312 Ry
     estimated scf accuracy    <       0.00007706 Ry

     iteration # 72     ecut=    30.00 Ry     beta= 0.40
     Davidson diagonalization with overlap
     ethr =  2.03E-09,  avg # of iterations =  2.0

     negative rho (up, down):  1.339E+00 0.000E+00

     total cpu time spent up to now is     1450.6 secs

     total energy              =   -7537.49040106 Ry
     estimated scf accuracy    <       0.00008391 Ry

     iteration # 73     ecut=    30.00 Ry     beta= 0.40
     Davidson diagonalization with overlap
     ethr =  2.03E-09,  avg # of iterations =  2.0

     negative rho (up, down):  1.339E+00 0.000E+00

     total cpu time spent up to now is     1470.2 secs

     total energy              =   -7537.49064835 Ry
     estimated scf accuracy    <       0.00009891 Ry

     iteration # 74     ecut=    30.00 Ry     beta= 0.40
     Davidson diagonalization with overlap
     ethr =  2.03E-09,  avg # of iterations =  2.0

     negative rho (up, down):  1.339E+00 0.000E+00

     total cpu time spent up to now is     1489.7 secs

     total energy              =   -7537.49071015 Ry
     estimated scf accuracy    <       0.00005910 Ry

     iteration # 75     ecut=    30.00 Ry     beta= 0.40
     Davidson diagonalization with overlap
     ethr =  2.03E-09,  avg # of iterations =  5.0

     negative rho (up, down):  1.339E+00 0.000E+00

     total cpu time spent up to now is     1509.5 secs

     total energy              =   -7537.49065799 Ry
     estimated scf accuracy    <       0.00008362 Ry

     iteration # 76     ecut=    30.00 Ry     beta= 0.40
     Davidson diagonalization with overlap
     ethr =  2.03E-09,  avg # of iterations =  6.0

     negative rho (up, down):  1.339E+00 0.000E+00

     total cpu time spent up to now is     1529.5 secs

     total energy              =   -7537.49078793 Ry
     estimated scf accuracy    <       0.00007975 Ry

     iteration # 77     ecut=    30.00 Ry     beta= 0.40
     Davidson diagonalization with overlap
     ethr =  2.03E-09,  avg # of iterations =  5.0

     negative rho (up, down):  1.339E+00 0.000E+00

     total cpu time spent up to now is     1549.3 secs

     total energy              =   -7537.49077204 Ry
     estimated scf accuracy    <       0.00004799 Ry

     iteration # 78     ecut=    30.00 Ry     beta= 0.40
     Davidson diagonalization with overlap
     ethr =  2.03E-09,  avg # of iterations =  2.0

     negative rho (up, down):  1.340E+00 0.000E+00

     total cpu time spent up to now is     1568.8 secs

     total energy              =   -7537.49061490 Ry
     estimated scf accuracy    <       0.00003861 Ry

     iteration # 79     ecut=    30.00 Ry     beta= 0.40
     Davidson diagonalization with overlap
     ethr =  2.03E-09,  avg # of iterations =  6.0

     negative rho (up, down):  1.339E+00 0.000E+00

     total cpu time spent up to now is     1588.7 secs

     total energy              =   -7537.49096505 Ry
     estimated scf accuracy    <       0.00008953 Ry

     iteration # 80     ecut=    30.00 Ry     beta= 0.40
     Davidson diagonalization with overlap
     ethr =  2.03E-09,  avg # of iterations =  6.0

     negative rho (up, down):  1.339E+00 0.000E+00

     total cpu time spent up to now is     1608.7 secs

     total energy              =   -7537.49094338 Ry
     estimated scf accuracy    <       0.00002860 Ry

     iteration # 81     ecut=    30.00 Ry     beta= 0.40
     Davidson diagonalization with overlap
     ethr =  2.03E-09,  avg # of iterations =  6.0

     negative rho (up, down):  1.340E+00 0.000E+00

     total cpu time spent up to now is     1628.7 secs

     total energy              =   -7537.49096338 Ry
     estimated scf accuracy    <       0.00003700 Ry

     iteration # 82     ecut=    30.00 Ry     beta= 0.40
     Davidson diagonalization with overlap
     ethr =  2.03E-09,  avg # of iterations =  6.0

     negative rho (up, down):  1.340E+00 0.000E+00

     total cpu time spent up to now is     1648.6 secs

     total energy              =   -7537.49097236 Ry
     estimated scf accuracy    <       0.00002325 Ry

     iteration # 83     ecut=    30.00 Ry     beta= 0.40
     Davidson diagonalization with overlap
     ethr =  2.03E-09,  avg # of iterations =  3.0

     negative rho (up, down):  1.340E+00 0.000E+00

     total cpu time spent up to now is     1668.3 secs

     total energy              =   -7537.49099062 Ry
     estimated scf accuracy    <       0.00000833 Ry

     iteration # 84     ecut=    30.00 Ry     beta= 0.40
     Davidson diagonalization with overlap
     ethr =  1.28E-09,  avg # of iterations =  5.0

     negative rho (up, down):  1.340E+00 0.000E+00

     total cpu time spent up to now is     1688.1 secs

     total energy              =   -7537.49099275 Ry
     estimated scf accuracy    <       0.00000227 Ry

     iteration # 85     ecut=    30.00 Ry     beta= 0.40
     Davidson diagonalization with overlap
     ethr =  3.48E-10,  avg # of iterations =  6.0

     negative rho (up, down):  1.340E+00 0.000E+00

     total cpu time spent up to now is     1708.0 secs

     total energy              =   -7537.49099359 Ry
     estimated scf accuracy    <       0.00000101 Ry

     iteration # 86     ecut=    30.00 Ry     beta= 0.40
     Davidson diagonalization with overlap
     ethr =  1.55E-10,  avg # of iterations =  5.0

     negative rho (up, down):  1.340E+00 0.000E+00

     total cpu time spent up to now is     1728.0 secs

     total energy              =   -7537.49099792 Ry
     estimated scf accuracy    <       0.00000124 Ry

     iteration # 87     ecut=    30.00 Ry     beta= 0.40
     Davidson diagonalization with overlap
     ethr =  1.55E-10,  avg # of iterations =  5.0

     negative rho (up, down):  1.341E+00 0.000E+00

     total cpu time spent up to now is     1747.8 secs

     total energy              =   -7537.49100092 Ry
     estimated scf accuracy    <       0.00000054 Ry

     iteration # 88     ecut=    30.00 Ry     beta= 0.40
     Davidson diagonalization with overlap
     ethr =  8.28E-11,  avg # of iterations =  6.0

     negative rho (up, down):  1.341E+00 0.000E+00

     total cpu time spent up to now is     1767.9 secs

     total energy              =   -7537.49100767 Ry
     estimated scf accuracy    <       0.00000028 Ry

     iteration # 89     ecut=    30.00 Ry     beta= 0.40
     Davidson diagonalization with overlap
     ethr =  4.21E-11,  avg # of iterations =  6.0

     negative rho (up, down):  1.341E+00 0.000E+00

     total cpu time spent up to now is     1788.1 secs

     total energy              =   -7537.49100876 Ry
     estimated scf accuracy    <       0.00000052 Ry

     iteration # 90     ecut=    30.00 Ry     beta= 0.40
     Davidson diagonalization with overlap
     ethr =  4.21E-11,  avg # of iterations =  3.0

     negative rho (up, down):  1.341E+00 0.000E+00

     total cpu time spent up to now is     1807.9 secs

     total energy              =   -7537.49101484 Ry
     estimated scf accuracy    <       0.00000025 Ry

     iteration # 91     ecut=    30.00 Ry     beta= 0.40
     Davidson diagonalization with overlap
     ethr =  3.89E-11,  avg # of iterations =  3.0

     negative rho (up, down):  1.341E+00 0.000E+00

     total cpu time spent up to now is     1827.6 secs

     total energy              =   -7537.49102059 Ry
     estimated scf accuracy    <       0.00000041 Ry

     iteration # 92     ecut=    30.00 Ry     beta= 0.40
     Davidson diagonalization with overlap
     ethr =  3.89E-11,  avg # of iterations =  3.0

     negative rho (up, down):  1.341E+00 0.000E+00

     total cpu time spent up to now is     1847.5 secs

     total energy              =   -7537.49101819 Ry
     estimated scf accuracy    <       0.00000120 Ry

     iteration # 93     ecut=    30.00 Ry     beta= 0.40
     Davidson diagonalization with overlap
     ethr =  3.89E-11,  avg # of iterations =  4.0

     negative rho (up, down):  1.341E+00 0.000E+00

     total cpu time spent up to now is     1867.5 secs

     total energy              =   -7537.49101593 Ry
     estimated scf accuracy    <       0.00000394 Ry

     iteration # 94     ecut=    30.00 Ry     beta= 0.40
     Davidson diagonalization with overlap
     ethr =  3.89E-11,  avg # of iterations =  3.0

     negative rho (up, down):  1.341E+00 0.000E+00

     total cpu time spent up to now is     1887.4 secs

     total energy              =   -7537.49101215 Ry
     estimated scf accuracy    <       0.00000558 Ry

     iteration # 95     ecut=    30.00 Ry     beta= 0.40
     Davidson diagonalization with overlap
     ethr =  3.89E-11,  avg # of iterations =  3.0

     negative rho (up, down):  1.341E+00 0.000E+00

     total cpu time spent up to now is     1907.1 secs

     total energy              =   -7537.49100281 Ry
     estimated scf accuracy    <       0.00000735 Ry

     iteration # 96     ecut=    30.00 Ry     beta= 0.40
     Davidson diagonalization with overlap
     ethr =  3.89E-11,  avg # of iterations =  3.0

     negative rho (up, down):  1.341E+00 0.000E+00

     total cpu time spent up to now is     1927.1 secs

     total energy              =   -7537.49098791 Ry
     estimated scf accuracy    <       0.00001006 Ry

     iteration # 97     ecut=    30.00 Ry     beta= 0.40
     Davidson diagonalization with overlap
     ethr =  3.89E-11,  avg # of iterations =  3.0

     negative rho (up, down):  1.341E+00 0.000E+00

     total cpu time spent up to now is     1946.9 secs

     total energy              =   -7537.49096013 Ry
     estimated scf accuracy    <       0.00001361 Ry

     iteration # 98     ecut=    30.00 Ry     beta= 0.40
     Davidson diagonalization with overlap
     ethr =  3.89E-11,  avg # of iterations =  3.0

     negative rho (up, down):  1.342E+00 0.000E+00

     total cpu time spent up to now is     1966.7 secs

     total energy              =   -7537.49094790 Ry
     estimated scf accuracy    <       0.00001906 Ry

     iteration # 99     ecut=    30.00 Ry     beta= 0.40
     Davidson diagonalization with overlap
     ethr =  3.89E-11,  avg # of iterations =  3.0

     negative rho (up, down):  1.342E+00 0.000E+00

     total cpu time spent up to now is     1986.4 secs

     total energy              =   -7537.49092860 Ry
     estimated scf accuracy    <       0.00002190 Ry

     iteration #100     ecut=    30.00 Ry     beta= 0.40
     Davidson diagonalization with overlap
     ethr =  3.89E-11,  avg # of iterations =  3.0

     negative rho (up, down):  1.342E+00 0.000E+00

     total cpu time spent up to now is     2006.2 secs

     total energy              =   -7537.49089565 Ry
     estimated scf accuracy    <       0.00002579 Ry

     iteration #101     ecut=    30.00 Ry     beta= 0.40
     Davidson diagonalization with overlap
     ethr =  3.89E-11,  avg # of iterations =  4.0

     negative rho (up, down):  1.342E+00 0.000E+00

     total cpu time spent up to now is     2026.2 secs

     total energy              =   -7537.49087938 Ry
     estimated scf accuracy    <       0.00003166 Ry

     iteration #102     ecut=    30.00 Ry     beta= 0.40
     Davidson diagonalization with overlap
     ethr =  3.89E-11,  avg # of iterations =  3.0

     negative rho (up, down):  1.342E+00 0.000E+00

     total cpu time spent up to now is     2046.3 secs

     total energy              =   -7537.49087041 Ry
     estimated scf accuracy    <       0.00003499 Ry

     iteration #103     ecut=    30.00 Ry     beta= 0.40
     Davidson diagonalization with overlap
     ethr =  3.89E-11,  avg # of iterations =  3.0

     negative rho (up, down):  1.342E+00 0.000E+00

     total cpu time spent up to now is     2066.2 secs

     total energy              =   -7537.49091090 Ry
     estimated scf accuracy    <       0.00003729 Ry

     iteration #104     ecut=    30.00 Ry     beta= 0.40
     Davidson diagonalization with overlap
     ethr =  3.89E-11,  avg # of iterations =  3.0

     negative rho (up, down):  1.342E+00 0.000E+00

     total cpu time spent up to now is     2086.1 secs

     total energy              =   -7537.49092317 Ry
     estimated scf accuracy    <       0.00003225 Ry

     iteration #105     ecut=    30.00 Ry     beta= 0.40
     Davidson diagonalization with overlap
     ethr =  3.89E-11,  avg # of iterations =  3.0

     negative rho (up, down):  1.342E+00 0.000E+00

     total cpu time spent up to now is     2106.1 secs

     total energy              =   -7537.49090001 Ry
     estimated scf accuracy    <       0.00003134 Ry

     iteration #106     ecut=    30.00 Ry     beta= 0.40
     Davidson diagonalization with overlap
     ethr =  3.89E-11,  avg # of iterations =  3.0

     negative rho (up, down):  1.342E+00 0.000E+00

     total cpu time spent up to now is     2126.0 secs

     total energy              =   -7537.49094629 Ry
     estimated scf accuracy    <       0.00003545 Ry

     iteration #107     ecut=    30.00 Ry     beta= 0.40
     Davidson diagonalization with overlap
     ethr =  3.89E-11,  avg # of iterations =  3.0

     negative rho (up, down):  1.343E+00 0.000E+00

     total cpu time spent up to now is     2145.8 secs

     total energy              =   -7537.49061134 Ry
     estimated scf accuracy    <       0.00002930 Ry

     iteration #108     ecut=    30.00 Ry     beta= 0.40
     Davidson diagonalization with overlap
     ethr =  3.89E-11,  avg # of iterations =  6.0

     negative rho (up, down):  1.343E+00 0.000E+00

     total cpu time spent up to now is     2166.3 secs

     total energy              =   -7537.49075052 Ry
     estimated scf accuracy    <       0.00007754 Ry

     iteration #109     ecut=    30.00 Ry     beta= 0.40
     Davidson diagonalization with overlap
     ethr =  3.89E-11,  avg # of iterations =  6.0

     negative rho (up, down):  1.342E+00 0.000E+00

     total cpu time spent up to now is     2186.8 secs

     total energy              =   -7537.49109388 Ry
     estimated scf accuracy    <       0.00006013 Ry

     iteration #110     ecut=    30.00 Ry     beta= 0.40
     Davidson diagonalization with overlap
     ethr =  3.89E-11,  avg # of iterations =  7.0

     negative rho (up, down):  1.342E+00 0.000E+00

     total cpu time spent up to now is     2208.1 secs

     total energy              =   -7537.49110675 Ry
     estimated scf accuracy    <       0.00001225 Ry

     iteration #111     ecut=    30.00 Ry     beta= 0.40
     Davidson diagonalization with overlap
     ethr =  3.89E-11,  avg # of iterations =  7.0

     negative rho (up, down):  1.342E+00 0.000E+00

     total cpu time spent up to now is     2229.1 secs

     total energy              =   -7537.49111575 Ry
     estimated scf accuracy    <       0.00000086 Ry

     iteration #112     ecut=    30.00 Ry     beta= 0.40
     Davidson diagonalization with overlap
     ethr =  3.89E-11,  avg # of iterations =  5.0

     negative rho (up, down):  1.342E+00 0.000E+00

     total cpu time spent up to now is     2249.5 secs

     total energy              =   -7537.49112237 Ry
     estimated scf accuracy    <       0.00000395 Ry

     iteration #113     ecut=    30.00 Ry     beta= 0.40
     Davidson diagonalization with overlap
     ethr =  3.89E-11,  avg # of iterations =  3.0

     negative rho (up, down):  1.342E+00 0.000E+00

     total cpu time spent up to now is     2269.4 secs

     total energy              =   -7537.49112960 Ry
     estimated scf accuracy    <       0.00000324 Ry

     iteration #114     ecut=    30.00 Ry     beta= 0.40
     Davidson diagonalization with overlap
     ethr =  3.89E-11,  avg # of iterations =  3.0

     negative rho (up, down):  1.342E+00 0.000E+00

     total cpu time spent up to now is     2289.0 secs

     total energy              =   -7537.49113390 Ry
     estimated scf accuracy    <       0.00000187 Ry

     iteration #115     ecut=    30.00 Ry     beta= 0.40
     Davidson diagonalization with overlap
     ethr =  3.89E-11,  avg # of iterations =  3.0

     negative rho (up, down):  1.342E+00 0.000E+00

     total cpu time spent up to now is     2308.7 secs

     total energy              =   -7537.49113752 Ry
     estimated scf accuracy    <       0.00000117 Ry

     iteration #116     ecut=    30.00 Ry     beta= 0.40
     Davidson diagonalization with overlap
     ethr =  3.89E-11,  avg # of iterations =  3.0

     negative rho (up, down):  1.342E+00 0.000E+00

     total cpu time spent up to now is     2328.5 secs

     total energy              =   -7537.49114095 Ry
     estimated scf accuracy    <       0.00000139 Ry

     iteration #117     ecut=    30.00 Ry     beta= 0.40
     Davidson diagonalization with overlap
     ethr =  3.89E-11,  avg # of iterations =  3.0

     negative rho (up, down):  1.342E+00 0.000E+00

     total cpu time spent up to now is     2348.3 secs

     total energy              =   -7537.49114325 Ry
     estimated scf accuracy    <       0.00000081 Ry

     iteration #118     ecut=    30.00 Ry     beta= 0.40
     Davidson diagonalization with overlap
     ethr =  3.89E-11,  avg # of iterations =  5.0

     negative rho (up, down):  1.342E+00 0.000E+00

     total cpu time spent up to now is     2368.2 secs

     total energy              =   -7537.49114279 Ry
     estimated scf accuracy    <       0.00000053 Ry

     iteration #119     ecut=    30.00 Ry     beta= 0.40
     Davidson diagonalization with overlap
     ethr =  3.89E-11,  avg # of iterations =  5.0

     negative rho (up, down):  1.342E+00 0.000E+00

     total cpu time spent up to now is     2388.2 secs

     total energy              =   -7537.49115091 Ry
     estimated scf accuracy    <       0.00000014 Ry

     iteration #120     ecut=    30.00 Ry     beta= 0.40
     Davidson diagonalization with overlap
     ethr =  2.18E-11,  avg # of iterations =  5.0

     negative rho (up, down):  1.342E+00 0.000E+00

     total cpu time spent up to now is     2408.3 secs

     total energy              =   -7537.49114832 Ry
     estimated scf accuracy    <       0.00000062 Ry

     iteration #121     ecut=    30.00 Ry     beta= 0.40
     Davidson diagonalization with overlap
     ethr =  2.18E-11,  avg # of iterations =  5.0

     negative rho (up, down):  1.342E+00 0.000E+00

     total cpu time spent up to now is     2428.4 secs

     total energy              =   -7537.49114445 Ry
     estimated scf accuracy    <       0.00000013 Ry

     iteration #122     ecut=    30.00 Ry     beta= 0.40
     Davidson diagonalization with overlap
     ethr =  1.92E-11,  avg # of iterations =  5.0

     negative rho (up, down):  1.342E+00 0.000E+00

     total cpu time spent up to now is     2448.2 secs

     End of self-consistent calculation

          k = 0.0000 0.0000 0.0000 ( 46193 PWs)   bands (ev):

   -57.9469 -57.9271 -57.8961 -57.8767 -57.8698 -57.8601 -57.8466 -57.8199
   -57.8087 -57.8031 -57.7993 -57.7850 -57.7643 -57.7566 -57.7522 -57.7487
   -57.7464 -57.7363 -57.7294 -57.7262 -57.7248 -57.7211 -57.7193 -57.7152
   -57.7090 -57.7041 -57.6981 -57.6945 -57.6931 -57.6872 -57.6617 -57.6486
   -34.3651 -34.3450 -34.3283 -34.3190 -34.3021 -34.2973 -34.2800 -34.2730
   -34.2557 -34.2445 -34.2387 -34.2293 -34.2272 -34.2221 -34.2175 -34.2103
   -34.2087 -34.1990 -34.1917 -34.1878 -34.1831 -34.1726 -34.1583 -34.1544
   -34.1471 -34.1322 -34.1251 -34.1180 -34.1162 -34.1112 -34.1040 -34.0901
   -34.0843 -34.0816 -34.0769 -34.0725 -34.0675 -34.0647 -34.0625 -34.0571
   -34.0539 -34.0461 -34.0381 -34.0362 -34.0291 -34.0199 -34.0178 -34.0106
   -34.0042 -34.0034 -33.9989 -33.9953 -33.9931 -33.9864 -33.9849 -33.9820
   -33.9779 -33.9762 -33.9734 -33.9652 -33.9613 -33.9569 -33.9523 -33.9476
   -33.9415 -33.9406 -33.9321 -33.9304 -33.9266 -33.9252 -33.9198 -33.9178
   -33.9150 -33.9145 -33.9088 -33.9043 -33.9023 -33.8971 -33.8900 -33.8839
   -33.8786 -33.8728 -33.8696 -33.8600 -33.8525 -33.8460 -33.8394 -33.8353
   -33.8225 -33.8138 -33.8099 -33.8092 -33.7939 -33.7896 -33.7769 -33.7705
   -18.4838 -18.2691 -18.2551 -18.2234 -18.1578 -18.0444 -18.0361 -18.0295
   -18.0040 -18.0022 -17.9904 -17.9776 -17.9627 -17.9326 -17.9228 -17.9049
   -17.8557 -17.8369 -17.8221 -17.8198 -17.8080 -17.8063 -17.7983 -17.7952
   -17.7862 -17.7789 -17.7728 -17.7675 -17.7406 -17.7288 -17.6852 -17.6515
   -13.2451 -13.2387 -13.2274 -13.2080 -13.2033 -10.9377 -10.5459 -10.5212
   -10.5174 -10.3809 -10.3684 -10.3129  -9.8893  -9.8142  -9.6665  -9.6096
    -9.5794  -9.5723  -9.4796  -9.4639  -9.4454  -6.3835  -5.9376  -5.9270
    -5.7958  -5.4547  -5.1864  -5.1795  -5.1700  -5.1307  -5.1194  -5.1061
    -5.0267  -5.0165  -4.9798  -4.9533  -4.9472  -4.9440  -4.9289  -4.9219
    -4.9089  -4.8947  -4.8898  -4.8861  -4.8560  -4.8508  -4.8438  -4.7550
    -4.7272  -4.6705  -4.6564  -4.6194  -4.5840  -4.5831  -4.5771  -4.5756
    -4.5428  -4.5348  -4.5075  -4.4986  -4.4727  -4.4387  -4.4364  -4.4251
    -4.4202  -4.4081  -4.2141  -4.1725  -4.1145  -4.1118  -4.1016  -4.0895
    -4.0877  -4.0576  -4.0485  -4.0481  -4.0407  -4.0380  -4.0300  -4.0179
    -4.0030  -3.9923  -3.9893  -3.9784  -3.9490  -3.9295  -3.9280  -3.9151
    -3.9053  -3.8966  -3.8747  -3.8609  -3.8526  -3.8462  -3.8371  -3.8294
    -3.8241  -3.8190  -3.8185  -3.7332  -3.7019  -3.6778  -3.6644  -3.6267
    -3.6232  -3.5736  -3.5665  -3.5335  -3.5302  -3.4810  -3.4778  -3.4560
    -3.4426  -3.4220  -3.3618  -3.3491  -3.3283  -3.1264  -3.0934  -3.0807
    -2.7049  -2.6870  -2.6719  -2.5270  -2.4955  -2.4829  -2.4758  -2.4199
    -2.3939  -2.3774  -2.3237  -2.3096  -2.2930  -2.2686  -2.2615  -2.2511
    -2.2317  -2.2220  -2.2045  -2.1313  -2.0836  -2.0532  -2.0023  -1.9450
    -1.5126  -1.4310  -1.4282  -1.3683  -1.2584  -1.2376  -1.1730  -1.0809
    -1.0664  -1.0505  -1.0376  -0.9926  -0.9757  -0.9431  -0.9186  -0.8790
    -0.8294  -0.8144  -0.7441  -0.5259   0.3536   0.3649   0.5110   0.5466
     0.5856   0.9451   1.0003   1.0365   1.0878   1.1038   1.1433   1.2164
     1.2380   1.4658   1.5277   1.5442   1.5548   1.5670   1.5905   1.9738
     1.9815   1.9856   1.9982   2.0118   2.0285   2.0536   2.0834   2.0917
     2.0953   2.1372   2.1483   2.1517   2.1679   2.2228   2.2348   2.2740
     2.2776   2.3227   2.3304   2.3476   2.3857   2.3903   2.3966   2.4052
     2.4168   2.4271   2.4458   2.4550   2.4657   2.6948   2.7033   2.7111
     2.7209   2.7697   2.7943   2.8114   2.8181   2.8314   2.8426   2.8596
     2.8666   2.8724   2.8925   2.8957   2.9005   2.9196   2.9290   2.9500

     the Fermi energy is     0.4813 ev

!    total energy              =   -7537.49116211 Ry
     estimated scf accuracy    <       0.00000010 Ry
     smearing contrib. (-TS)   =      -0.00184482 Ry
     internal energy E=F+TS    =   -7537.48931730 Ry

     The total energy is F=E-TS. E is the sum of the following terms:
     one-electron contribution =  -36489.55144532 Ry
     hartree contribution      =   18307.49500871 Ry
     xc contribution           =    -918.83702851 Ry
     ewald contribution        =   13972.02190814 Ry
     one-center paw contrib.   =   -2408.61776032 Ry

     convergence has been achieved in 122 iterations

     negative rho (up, down):  1.342E+00 0.000E+00

     Forces acting on atoms (cartesian axes, Ry/au):

     atom    1 type  1   force =     0.01417928    0.00397748    0.00633852
     atom    2 type  1   force =     0.00312065    0.00219809    0.00296389
     atom    3 type  1   force =    -0.02180165   -0.00269164    0.02085333
     atom    4 type  1   force =    -0.00376827    0.00160732    0.00323732
     atom    5 type  1   force =     0.03449546    0.00759871    0.01747928
     atom    6 type  1   force =     0.01732370    0.01859761    0.00970050
     atom    7 type  1   force =     0.00437512   -0.00057108    0.00200869
     atom    8 type  1   force =     0.00473690   -0.03439443    0.01754284
     atom    9 type  1   force =    -0.01069100    0.00363473    0.00350522
     atom   10 type  1   force =     0.00049922   -0.01229106    0.00513520
     atom   11 type  1   force =     0.00641494   -0.00209543    0.00197334
     atom   12 type  1   force =    -0.00882685   -0.01378800    0.00742844
     atom   13 type  1   force =     0.00004182   -0.00152873   -0.00063101
     atom   14 type  1   force =    -0.01764271   -0.00188373    0.00396178
     atom   15 type  1   force =    -0.02033009    0.01875913    0.00800602
     atom   16 type  1   force =     0.00143976    0.00151281   -0.00060616
     atom   17 type  3   force =    -0.00667272   -0.00363970    0.01253520
     atom   18 type  3   force =    -0.00565941   -0.00695557   -0.00432874
     atom   19 type  3   force =     0.00580099    0.00398248    0.00969345
     atom   20 type  3   force =    -0.00241227    0.01770350    0.01045244
     atom   21 type  3   force =     0.02754298   -0.01669800   -0.02154342
     atom   22 type  3   force =     0.00394786   -0.00599948   -0.00249341
     atom   23 type  3   force =     0.01940507   -0.00596069    0.01103959
     atom   24 type  3   force =     0.00337646   -0.00539346   -0.00390398
     atom   25 type  3   force =    -0.02077543   -0.01347647    0.01210520
     atom   26 type  3   force =    -0.00535029    0.00513263   -0.00277844
     atom   27 type  3   force =    -0.00056233    0.00049734   -0.00130188
     atom   28 type  3   force =     0.02069395    0.01184578    0.02043592
     atom   29 type  3   force =     0.02159665    0.01938749   -0.03603331
     atom   30 type  3   force =    -0.00061961    0.01015082   -0.00690598
     atom   31 type  3   force =     0.00307958    0.01607262    0.00909537
     atom   32 type  3   force =    -0.02069176   -0.02170902   -0.02026596
     atom   33 type  3   force =    -0.00296363    0.02519285   -0.02042861
     atom   34 type  3   force =     0.01269448   -0.01035768    0.01092513
     atom   35 type  3   force =     0.00981339   -0.01268032    0.00856071
     atom   36 type  3   force =    -0.02485977   -0.00450751   -0.02063180
     atom   37 type  3   force =    -0.01816877    0.00237443    0.01137610
     atom   38 type  3   force =    -0.00109236    0.00422316   -0.00479179
     atom   39 type  3   force =    -0.01400973   -0.00423027   -0.00923471
     atom   40 type  3   force =    -0.00450089   -0.00021599    0.00132640
     atom   41 type  3   force =     0.00750372    0.00220530    0.00994127
     atom   42 type  3   force =     0.00770874    0.00278707   -0.00199641
     atom   43 type  3   force =    -0.00805879   -0.00285052   -0.00363936
     atom   44 type  3   force =     0.00886348   -0.00360465   -0.00538078
     atom   45 type  3   force =    -0.00149188   -0.00335038    0.00164202
     atom   46 type  3   force =    -0.00719957   -0.01905310    0.01364439
     atom   47 type  3   force =     0.00040774   -0.00045919   -0.00507190
     atom   48 type  3   force =    -0.00427990    0.01419516    0.00831753
     atom   49 type  4   force =     0.01216561   -0.03653506    0.01396305
     atom   50 type  4   force =    -0.02109837    0.02365359    0.00487784
     atom   51 type  4   force =    -0.01659233   -0.01485831   -0.04446762
     atom   52 type  4   force =    -0.01806069    0.01549071    0.01277253
     atom   53 type  4   force =    -0.02906040    0.01751879   -0.02340185
     atom   54 type  4   force =     0.00201947   -0.02815538   -0.02208491
     atom   55 type  4   force =    -0.00057477   -0.01389687    0.01567576
     atom   56 type  4   force =    -0.00259029   -0.00141410    0.00584085
     atom   57 type  4   force =     0.00907499    0.03595747   -0.03311144
     atom   58 type  4   force =    -0.03963716   -0.00765826   -0.04478690
     atom   59 type  4   force =     0.05034795    0.02426738   -0.00622680
     atom   60 type  4   force =    -0.00239521    0.03160738   -0.02056968
     atom   61 type  4   force =     0.01151281    0.02977831    0.01625203
     atom   62 type  4   force =     0.01853905   -0.01332346   -0.01928763
     atom   63 type  4   force =    -0.00099482    0.00231424    0.01539187
     atom   64 type  4   force =     0.03503238   -0.01085166   -0.03335731
     atom   65 type  4   force =     0.02419857   -0.00416779    0.01956457
     atom   66 type  4   force =     0.01460471    0.00940773   -0.00473538
     atom   67 type  4   force =     0.00798404    0.00844986    0.00286840
     atom   68 type  4   force =    -0.02976833   -0.02669128    0.02956219
     atom   69 type  4   force =     0.00394334    0.00914632   -0.01134869
     atom   70 type  4   force =    -0.00333582    0.00155846   -0.01684841
     atom   71 type  4   force =     0.00182713   -0.00404582    0.01014320
     atom   72 type  4   force =     0.01051395   -0.00265054   -0.01423851
     atom   73 type  4   force =    -0.00534237    0.00302882    0.01321981
     atom   74 type  4   force =    -0.02615054    0.01214586    0.00214970
     atom   75 type  4   force =     0.00230057   -0.00488189    0.00319310
     atom   76 type  4   force =    -0.00378372   -0.00094271   -0.01714388
     atom   77 type  4   force =    -0.02093659   -0.02057111   -0.01898975
     atom   78 type  4   force =     0.00184934   -0.01935960    0.01235688
     atom   79 type  4   force =     0.01292693    0.00047781    0.00231599
     atom   80 type  4   force =    -0.00284561    0.00436943    0.00167141
     atom   81 type  2   force =    -0.00230610   -0.00241872    0.05952214

     Total force =     0.239799     Total SCF correction =     0.000718


     Computing stress (Cartesian axis) and pressure


     negative rho (up, down):  1.342E+00 0.000E+00
          total   stress  (Ry/bohr**3)                   (kbar)     P=     -118.94
  -0.00082612   0.00000249  -0.00000105         -121.53        0.37       -0.15
   0.00000249  -0.00082835   0.00000056            0.37     -121.85        0.08
  -0.00000105   0.00000056  -0.00077114           -0.15        0.08     -113.44


     Writing all to output data dir /root/qe_scratch/cand169_A_Ti2CO2_In.save/ :
     XML data file, charge density, pseudopotentials, collected wavefunctions
 
     init_run     :     20.53s CPU     25.89s WALL (       1 calls)
     electrons    :   2004.58s CPU   2421.48s WALL (       1 calls)
     forces       :      1.75s CPU      1.81s WALL (       1 calls)
     stress       :      2.78s CPU      2.83s WALL (       1 calls)

     Called by init_run:
     wfcinit      :      0.98s CPU      1.17s WALL (       1 calls)
     potinit      :     18.24s CPU     22.90s WALL (       1 calls)
     hinit0       :      0.72s CPU      0.84s WALL (       1 calls)

     Called by electrons:
     c_bands      :    220.22s CPU    220.59s WALL (     122 calls)
     sum_band     :     30.64s CPU     30.74s WALL (     122 calls)
     v_of_rho     :     10.38s CPU     13.55s WALL (     123 calls)
     newd         :     39.77s CPU     39.99s WALL (     123 calls)
                                       39.99s GPU  (     123 calls)
     PAW_pot      :   1690.81s CPU   2102.84s WALL (     123 calls)
     mix_rho      :      7.91s CPU      8.26s WALL (     122 calls)

     Called by c_bands:
     init_us_2    :      0.73s CPU      0.74s WALL (     245 calls)
     cegterg      :    217.45s CPU    217.73s WALL (     122 calls)

     Called by *egterg:
     cdiaghg      :     19.53s CPU     19.57s WALL (     618 calls)
                                       19.57s GPU  (     618 calls)
     h_psi        :     86.24s CPU     86.63s WALL (     619 calls)
                                       86.59s GPU  (     619 calls)
     s_psi        :      1.70s CPU      1.70s WALL (     619 calls)
     g_psi        :      0.00s CPU      0.28s WALL (     496 calls)
                                        0.28s GPU  (     496 calls)

     Called by h_psi:
     h_psi:calbec :      0.13s CPU     32.76s WALL (     619 calls)
                                       32.76s GPU  (     619 calls)
     vloc_psi     :     27.37s CPU     27.56s WALL (     619 calls)
                                       27.56s GPU  (     619 calls)
     add_vuspsi   :      1.74s CPU     26.11s WALL (     619 calls)
                                       26.10s GPU  (     619 calls)

     General routines
     calbec       :      0.13s CPU      0.28s WALL (     746 calls)
     fft          :     11.90s CPU     15.73s WALL (    1622 calls)
                                        0.31s GPU  (    1499 calls)
     ffts         :      5.86s CPU      7.38s WALL (     245 calls)
                                        0.02s GPU  (     122 calls)
     fftw         :      0.27s CPU     27.46s WALL (   18406 calls)
                                       27.40s GPU  (   18406 calls)
     interpolate  :     18.97s CPU     24.13s WALL (     123 calls)
 
     Parallel routines
 
     PWSCF        :  33m50.71s CPU  40m53.41s WALL

 
   This run was terminated on:  17: 6:19   6May2026            

=------------------------------------------------------------------------------=
   JOB DONE.
=------------------------------------------------------------------------------=
Warning: ieee_invalid is signaling
Warning: ieee_divide_by_zero is signaling
Warning: ieee_underflow is signaling
Warning: ieee_inexact is signaling
FORTRAN STOP
