--------------------------------------------------------------------------
WARNING: Open MPI tried to bind a process but failed.  This is a
warning only; your job will continue, though performance may
be degraded.

  Local host:        3253031b5b37
  Application name:  /root/qe-7.3.1/bin/pw.x
  Error message:     failed to bind memory
  Location:          ../../../../../orte/mca/rtc/hwloc/rtc_hwloc.c:447

--------------------------------------------------------------------------

     Program PWSCF v.7.3.1 starts on  6May2026 at 13:28:49 

     This program is part of the open-source Quantum ESPRESSO suite
     for quantum simulation of materials; please cite
         "P. Giannozzi et al., J. Phys.:Condens. Matter 21 395502 (2009);
         "P. Giannozzi et al., J. Phys.:Condens. Matter 29 465901 (2017);
         "P. Giannozzi et al., J. Chem. Phys. 152 154105 (2020);
          URL http://www.quantum-espresso.org", 
     in publications or presentations arising from this work. More details at
     http://www.quantum-espresso.org/quote

     Parallel version (MPI & OpenMP), running on       8 processor cores
     Number of MPI processes:                 1
     Threads/MPI process:                     8

     MPI processes distributed on     1 nodes
     83087 MiB available memory on the printing compute node when the environment starts
 
     Reading input from cand074_B_BiITe_Ba.in

     Current dimensions of program PWSCF are:
     Max number of different atomic species (ntypx) = 10
     Max number of k-points (npk) =  40000
     Max angular momentum in pseudopotentials (lmaxx) =  4
     file Ba.UPF: wavefunction(s)  5S 6S renormalized
     file Bi.UPF: wavefunction(s)  6P 5D renormalized
     file I.UPF: wavefunction(s)  5S renormalized
     file Te.UPF: wavefunction(s)  5S 5P renormalized
 
     Subspace diagonalization in iterative solution of the eigenvalue problem:
     a serial algorithm will be used

 
     G-vector sticks info
     --------------------
     sticks:   dense  smooth     PW     G-vecs:    dense   smooth      PW
     Sum        7789    5197   1285               817957   445377   55529
 
     Using Slab Decomposition
 


     bravais-lattice index     =            0
     lattice parameter (alat)  =      25.0686  a.u.
     unit-cell volume          =   20055.0398 (a.u.)^3
     number of atoms/cell      =           28
     number of atomic types    =            4
     number of electrons       =       262.00
     number of Kohn-Sham states=          157
     kinetic-energy cutoff     =      30.0000  Ry
     charge density cutoff     =     180.0000  Ry
     scf convergence threshold =      1.0E-07
     mixing beta               =       0.4000
     number of iterations used =            8  plain     mixing
     Exchange-correlation= SLA  PW   PBX  PBC
                           (   1   4   3   4   0   0   0)

     GPU acceleration is ACTIVE.  1 visible GPUs per MPI rank


     celldm(1)=  25.068578  celldm(2)=   0.000000  celldm(3)=   0.000000
     celldm(4)=   0.000000  celldm(5)=   0.000000  celldm(6)=   0.000000

     crystal axes: (cart. coord. in units of alat)
               a(1) = (   1.000000   0.000000   0.000000 )  
               a(2) = (  -0.500000   0.866025   0.000000 )  
               a(3) = (   0.000000   0.000000   1.469954 )  

     reciprocal axes: (cart. coord. in units 2 pi/alat)
               b(1) = (  1.000000  0.577350 -0.000000 )  
               b(2) = (  0.000000  1.154701  0.000000 )  
               b(3) = (  0.000000 -0.000000  0.680293 )  


     PseudoPot. # 1 for Ba read from file:
     /root/qe_pseudos/Ba.UPF
     MD5 check sum: 7cfe25f1fe7574a4710541d5a11d6531
     Pseudo is Projector augmented-wave + core cor, Zval = 10.0
     Generated using &quot;atomic&quot; code by A. Dal Corso  v.6.2.2
     Shape of augmentation charge: PSQ
     Using radial grid of 1251 points,  7 beta functions with: 
                l(1) =   0
                l(2) =   0
                l(3) =   0
                l(4) =   1
                l(5) =   1
                l(6) =   2
                l(7) =   2
     Q(r) pseudized with 0 coefficients 


     PseudoPot. # 2 for Bi read from file:
     /root/qe_pseudos/Bi.UPF
     MD5 check sum: 266ded784ae3bc462508ed03f0f37963
     Pseudo is Projector augmented-wave + core cor, Zval = 15.0
     Generated using &quot;atomic&quot; code by A. Dal Corso  v.6.2.2
     Shape of augmentation charge: PSQ
     Using radial grid of 1283 points,  6 beta functions with: 
                l(1) =   0
                l(2) =   0
                l(3) =   1
                l(4) =   1
                l(5) =   2
                l(6) =   2
     Q(r) pseudized with 0 coefficients 


     PseudoPot. # 3 for I  read from file:
     /root/qe_pseudos/I.UPF
     MD5 check sum: cd3d296c3308a581e1559a0c8a554cb5
     Pseudo is Projector augmented-wave + core cor, Zval =  7.0
     Generated using &quot;atomic&quot; code by A. Dal Corso  v.6.3
     Shape of augmentation charge: PSQ
     Using radial grid of 1247 points,  6 beta functions with: 
                l(1) =   0
                l(2) =   0
                l(3) =   1
                l(4) =   1
                l(5) =   2
                l(6) =   2
     Q(r) pseudized with 0 coefficients 


     PseudoPot. # 4 for Te read from file:
     /root/qe_pseudos/Te.UPF
     MD5 check sum: 66247bff2bd9dbf220fbb0bf5ab56e9d
     Pseudo is Projector augmented-wave + core cor, Zval =  6.0
     Generated using &quot;atomic&quot; code by A. Dal Corso  v.6.3
     Shape of augmentation charge: PSQ
     Using radial grid of 1245 points,  6 beta functions with: 
                l(1) =   0
                l(2) =   0
                l(3) =   1
                l(4) =   1
                l(5) =   2
                l(6) =   2
     Q(r) pseudized with 0 coefficients 


     atomic species   valence    mass     pseudopotential
     Ba               10.00   137.32700     Ba( 1.00)
     Bi               15.00   208.98040     Bi( 1.00)
     I                 7.00   126.90450     I ( 1.00)
     Te                6.00   127.60000     Te( 1.00)

     No symmetry found



   Cartesian axes

     site n.     atom                  positions (alat units)
         1        Bi     tau(   1) = (   0.0301815  -0.0196765   0.7510988  )
         2        Bi     tau(   2) = (   0.3325330   0.5772028   0.7448324  )
         3        Bi     tau(   3) = (   0.0021596   0.5812144   0.7440210  )
         4        Bi     tau(   4) = (  -0.1685698   0.3244746   0.7508374  )
         5        Bi     tau(   5) = (  -0.3370043   0.5751921   0.7487488  )
         6        Bi     tau(   6) = (   0.4992027   0.2880699   0.7447156  )
         7        Bi     tau(   7) = (   0.6668503   0.0002376   0.7478685  )
         8        Bi     tau(   8) = (   0.3372933  -0.0002545   0.7438406  )
         9        Bi     tau(   9) = (   0.1663162   0.2883044   0.7460043  )
        10        I      tau(  10) = (   0.1669127   0.4808236   0.5885392  )
        11        I      tau(  11) = (   0.3350669   0.7666369   0.5902556  )
        12        I      tau(  12) = (  -0.3249186   0.7668654   0.5775181  )
        13        I      tau(  13) = (   0.6644195   0.1949823   0.5906292  )
        14        I      tau(  14) = (  -0.1637382   0.4897001   0.5776452  )
        15        I      tau(  15) = (   0.4996325   0.4813621   0.5894917  )
        16        I      tau(  16) = (   0.0082685   0.1957047   0.5566263  )
        17        I      tau(  17) = (   0.3321280   0.1932076   0.5885778  )
        18        I      tau(  18) = (   0.0001867   0.7695309   0.5884576  )
        19        Te     tau(  19) = (   0.8182022   0.0882514   0.8886609  )
        20        Te     tau(  20) = (   0.4983228   0.0960215   0.8727166  )
        21        Te     tau(  21) = (  -0.1673311   0.6735108   0.8714855  )
        22        Te     tau(  22) = (   0.6492244   0.3911959   0.8839852  )
        23        Te     tau(  23) = (   0.0060568   0.3924956   0.8749825  )
        24        Te     tau(  24) = (   0.1764553   0.0983748   0.8750256  )
        25        Te     tau(  25) = (   0.4968580   0.6547308   0.8841048  )
        26        Te     tau(  26) = (   0.1658826   0.6732304   0.8727881  )
        27        Te     tau(  27) = (   0.3297991   0.3828189   0.8700081  )
        28        Ba     tau(  28) = (  -0.1037237   0.1324342   0.7114203  )

     number of k points=     1  Methfessel-Paxton smearing, width (Ry)=  0.0100
                       cart. coord. in units 2pi/alat
        k(    1) = (   0.0000000   0.0000000   0.0000000), wk =   2.0000000

     Dense  grid:   817957 G-vectors     FFT dimensions: ( 108, 108, 160)

     Smooth grid:   445377 G-vectors     FFT dimensions: (  90,  90, 135)

     Estimated max dynamical RAM per process >       3.89 GB

     Initial potential from superposition of free atoms

     starting charge     261.9730, renormalised to     262.0000

     negative rho (up, down):  8.921E-02 0.000E+00
     Starting wfcs are  158 randomized atomic wfcs
     Checking if some PAW data can be deallocated... 

     total cpu time spent up to now is       22.8 secs

     Self-consistent Calculation

     iteration #  1     ecut=    30.00 Ry     beta= 0.40
     Davidson diagonalization with overlap
     ethr =  1.00E-02,  avg # of iterations =  3.0

     Threshold (ethr) on eigenvalues was too large:
     Diagonalizing with lowered threshold

     Davidson diagonalization with overlap
     ethr =  5.26E-04,  avg # of iterations =  7.0

     negative rho (up, down):  1.184E-01 0.000E+00

     total cpu time spent up to now is       36.7 secs

     total energy              =  -15262.71844391 Ry
     estimated scf accuracy    <       1.65476295 Ry

     iteration #  2     ecut=    30.00 Ry     beta= 0.40
     Davidson diagonalization with overlap
     ethr =  6.32E-04,  avg # of iterations =  3.0

     negative rho (up, down):  1.321E-01 0.000E+00

     total cpu time spent up to now is       49.8 secs

     total energy              =  -15262.77696354 Ry
     estimated scf accuracy    <       1.47955275 Ry

     iteration #  3     ecut=    30.00 Ry     beta= 0.40
     Davidson diagonalization with overlap
     ethr =  5.65E-04,  avg # of iterations =  2.0

     negative rho (up, down):  1.546E-01 0.000E+00

     total cpu time spent up to now is       62.8 secs

     total energy              =  -15263.09785645 Ry
     estimated scf accuracy    <       0.34931611 Ry

     iteration #  4     ecut=    30.00 Ry     beta= 0.40
     Davidson diagonalization with overlap
     ethr =  1.33E-04,  avg # of iterations =  2.0

     negative rho (up, down):  1.551E-01 0.000E+00

     total cpu time spent up to now is       75.7 secs

     total energy              =  -15263.11692191 Ry
     estimated scf accuracy    <       0.11158742 Ry

     iteration #  5     ecut=    30.00 Ry     beta= 0.40
     Davidson diagonalization with overlap
     ethr =  4.26E-05,  avg # of iterations =  2.0

     negative rho (up, down):  1.449E-01 0.000E+00

     total cpu time spent up to now is       88.6 secs

     total energy              =  -15263.13001679 Ry
     estimated scf accuracy    <       0.06671799 Ry

     iteration #  6     ecut=    30.00 Ry     beta= 0.40
     Davidson diagonalization with overlap
     ethr =  2.55E-05,  avg # of iterations =  2.0

     negative rho (up, down):  1.234E-01 0.000E+00

     total cpu time spent up to now is      101.6 secs

     total energy              =  -15263.13573952 Ry
     estimated scf accuracy    <       0.01838077 Ry

     iteration #  7     ecut=    30.00 Ry     beta= 0.40
     Davidson diagonalization with overlap
     ethr =  7.02E-06,  avg # of iterations =  4.0

     negative rho (up, down):  1.068E-01 0.000E+00

     total cpu time spent up to now is      114.7 secs

     total energy              =  -15263.13699602 Ry
     estimated scf accuracy    <       0.01922048 Ry

     iteration #  8     ecut=    30.00 Ry     beta= 0.40
     Davidson diagonalization with overlap
     ethr =  7.02E-06,  avg # of iterations =  1.0

     negative rho (up, down):  8.489E-02 0.000E+00

     total cpu time spent up to now is      127.7 secs

     total energy              =  -15263.13748744 Ry
     estimated scf accuracy    <       0.01118901 Ry

     iteration #  9     ecut=    30.00 Ry     beta= 0.40
     Davidson diagonalization with overlap
     ethr =  4.27E-06,  avg # of iterations =  3.0

     negative rho (up, down):  8.489E-02 0.000E+00

     total cpu time spent up to now is      140.7 secs

     total energy              =  -15263.13797312 Ry
     estimated scf accuracy    <       0.00162285 Ry

     iteration # 10     ecut=    30.00 Ry     beta= 0.40
     Davidson diagonalization with overlap
     ethr =  6.19E-07,  avg # of iterations =  5.0

     negative rho (up, down):  8.491E-02 0.000E+00

     total cpu time spent up to now is      153.9 secs

     total energy              =  -15263.13826403 Ry
     estimated scf accuracy    <       0.00113651 Ry

     iteration # 11     ecut=    30.00 Ry     beta= 0.40
     Davidson diagonalization with overlap
     ethr =  4.34E-07,  avg # of iterations =  1.0

     negative rho (up, down):  8.491E-02 0.000E+00

     total cpu time spent up to now is      166.8 secs

     total energy              =  -15263.13830844 Ry
     estimated scf accuracy    <       0.00037748 Ry

     iteration # 12     ecut=    30.00 Ry     beta= 0.40
     Davidson diagonalization with overlap
     ethr =  1.44E-07,  avg # of iterations =  2.0

     negative rho (up, down):  8.491E-02 0.000E+00

     total cpu time spent up to now is      179.7 secs

     total energy              =  -15263.13832125 Ry
     estimated scf accuracy    <       0.00010953 Ry

     iteration # 13     ecut=    30.00 Ry     beta= 0.40
     Davidson diagonalization with overlap
     ethr =  4.18E-08,  avg # of iterations =  5.0

     negative rho (up, down):  8.491E-02 0.000E+00

     total cpu time spent up to now is      193.1 secs

     total energy              =  -15263.13832916 Ry
     estimated scf accuracy    <       0.00009200 Ry

     iteration # 14     ecut=    30.00 Ry     beta= 0.40
     Davidson diagonalization with overlap
     ethr =  3.51E-08,  avg # of iterations =  2.0

     negative rho (up, down):  8.491E-02 0.000E+00

     total cpu time spent up to now is      206.0 secs

     total energy              =  -15263.13833085 Ry
     estimated scf accuracy    <       0.00000726 Ry

     iteration # 15     ecut=    30.00 Ry     beta= 0.40
     Davidson diagonalization with overlap
     ethr =  2.77E-09,  avg # of iterations =  6.0

     negative rho (up, down):  8.492E-02 0.000E+00

     total cpu time spent up to now is      219.1 secs

     total energy              =  -15263.13833201 Ry
     estimated scf accuracy    <       0.00001768 Ry

     iteration # 16     ecut=    30.00 Ry     beta= 0.40
     Davidson diagonalization with overlap
     ethr =  2.77E-09,  avg # of iterations =  2.0

     negative rho (up, down):  8.492E-02 0.000E+00

     total cpu time spent up to now is      232.2 secs

     total energy              =  -15263.13833233 Ry
     estimated scf accuracy    <       0.00000493 Ry

     iteration # 17     ecut=    30.00 Ry     beta= 0.40
     Davidson diagonalization with overlap
     ethr =  1.88E-09,  avg # of iterations =  2.0

     negative rho (up, down):  8.492E-02 0.000E+00

     total cpu time spent up to now is      245.1 secs

     total energy              =  -15263.13833254 Ry
     estimated scf accuracy    <       0.00000022 Ry

     iteration # 18     ecut=    30.00 Ry     beta= 0.40
     Davidson diagonalization with overlap
     ethr =  8.41E-11,  avg # of iterations =  5.0

     negative rho (up, down):  8.492E-02 0.000E+00

     total cpu time spent up to now is      258.1 secs

     total energy              =  -15263.13833259 Ry
     estimated scf accuracy    <       0.00000064 Ry

     iteration # 19     ecut=    30.00 Ry     beta= 0.40
     Davidson diagonalization with overlap
     ethr =  8.41E-11,  avg # of iterations =  2.0

     negative rho (up, down):  8.492E-02 0.000E+00

     total cpu time spent up to now is      271.1 secs

     End of self-consistent calculation

          k = 0.0000 0.0000 0.0000 ( 55529 PWs)   bands (ev):

   -28.2306 -24.1321 -24.1246 -24.1232 -24.1195 -24.1131 -24.1103 -24.1084
   -24.1057 -24.0943 -24.0865 -24.0848 -24.0704 -24.0687 -24.0653 -24.0601
   -24.0532 -24.0496 -24.0489 -24.0426 -24.0388 -24.0357 -24.0318 -24.0292
   -24.0205 -24.0202 -24.0185 -24.0150 -24.0137 -24.0119 -23.9974 -23.9753
   -23.9596 -23.9410 -23.9364 -23.9269 -23.9114 -23.8902 -23.8864 -23.8643
   -23.8594 -23.8516 -23.8479 -23.8212 -23.8155 -23.8102 -15.4756 -15.1279
   -14.3509 -14.0653 -13.8117 -13.7806 -13.6983 -13.5056 -13.4986 -13.4523
   -13.3521 -13.0524 -12.8803 -12.8051 -12.7743 -12.7144 -12.6273 -12.5884
   -12.1748 -11.9502 -11.7787 -11.5389 -11.2590 -10.8283 -10.7546 -10.7532
   -10.6951 -10.1493 -10.0997 -10.0013  -5.3028  -5.2826  -5.2513  -5.1972
    -5.1750  -5.0485  -5.0329  -4.9010  -4.8332  -4.8214  -4.7990  -4.5248
    -4.2646  -4.2577  -4.2063  -4.1799  -4.0842  -4.0753  -3.9902  -3.9365
    -3.9060  -3.7587  -3.7236  -3.5339  -3.4694  -3.2762  -3.1840  -3.1176
    -3.1059  -3.0637  -3.0139  -3.0114  -2.9822  -2.9568  -2.9482  -2.9067
    -2.7733  -2.7434  -2.6635  -2.6227  -2.6087  -2.5965  -2.5735  -2.5482
    -2.5286  -2.4951  -2.4882  -2.4683  -2.4471  -2.4400  -2.4050  -2.3639
    -1.9374  -1.0594  -0.7486  -0.3748  -0.0439   0.1048   0.2105   0.2284
     0.2323   0.2945   0.4482   0.6144   0.7449   0.9015   0.9342   1.0244
     1.0386   1.1044   1.1181   1.1487   1.2021   1.2249   1.2889   1.3297
     1.4110   1.4286   1.4828   1.6456   1.7066

     the Fermi energy is    -0.5617 ev

!    total energy              =  -15263.13833261 Ry
     total all-electron energy =   -654222.654582 Ry
     estimated scf accuracy    <       0.00000002 Ry
     smearing contrib. (-TS)   =       0.00237127 Ry
     internal energy E=F+TS    =  -15263.14070388 Ry

     The total energy is F=E-TS. E is the sum of the following terms:
     one-electron contribution =   -5944.93583113 Ry
     hartree contribution      =    3051.23136882 Ry
     xc contribution           =    -603.41370022 Ry
     ewald contribution        =    1547.24530991 Ry
     one-center paw contrib.   =  -13313.26785126 Ry

     convergence has been achieved in  19 iterations

     negative rho (up, down):  8.492E-02 0.000E+00

     Forces acting on atoms (cartesian axes, Ry/au):

     atom    1 type  2   force =     0.11151574   -0.15068241    0.04744182
     atom    2 type  2   force =     0.00333389   -0.00578189    0.00985480
     atom    3 type  2   force =    -0.00262381    0.00224682   -0.00482731
     atom    4 type  2   force =    -0.07500550    0.17144431    0.04718275
     atom    5 type  2   force =    -0.00310904   -0.00185221    0.00697840
     atom    6 type  2   force =    -0.00298651    0.00623772    0.00992250
     atom    7 type  2   force =    -0.02026611   -0.01122828    0.00766937
     atom    8 type  2   force =     0.00083597   -0.00323062   -0.00517458
     atom    9 type  2   force =     0.00034531    0.00131219    0.00327695
     atom   10 type  3   force =     0.00016892    0.00031770    0.00201261
     atom   11 type  3   force =     0.00219431    0.00455654   -0.00124024
     atom   12 type  3   force =     0.00025351    0.00070109   -0.00097155
     atom   13 type  3   force =     0.00522370    0.00027041   -0.00212409
     atom   14 type  3   force =     0.00021846   -0.00002276   -0.00096621
     atom   15 type  3   force =    -0.00103017   -0.00088253    0.00015738
     atom   16 type  3   force =     0.12385839    0.06995883   -0.16306088
     atom   17 type  3   force =     0.00114619   -0.00001133    0.00170423
     atom   18 type  3   force =    -0.00324809   -0.00132726   -0.00208344
     atom   19 type  4   force =    -0.07683804   -0.04333496    0.22575398
     atom   20 type  4   force =     0.00547900   -0.00145402   -0.00178774
     atom   21 type  4   force =     0.00171362    0.00072379   -0.00073455
     atom   22 type  4   force =    -0.00222838   -0.00101397   -0.01126402
     atom   23 type  4   force =     0.00521861   -0.01100318   -0.00117437
     atom   24 type  4   force =    -0.00700921    0.00884624   -0.00127359
     atom   25 type  4   force =    -0.00167232   -0.00065840   -0.01099813
     atom   26 type  4   force =     0.00160560    0.00403021   -0.00114307
     atom   27 type  4   force =     0.00416424    0.00264156   -0.00184800
     atom   28 type  1   force =    -0.07125828   -0.04080358   -0.15128305

     Total force =     0.459978     Total SCF correction =     0.000362


     Computing stress (Cartesian axis) and pressure


     negative rho (up, down):  8.492E-02 0.000E+00
          total   stress  (Ry/bohr**3)                   (kbar)     P=     -183.72
  -0.00125789  -0.00001757  -0.00003962         -185.04       -2.58       -5.83
  -0.00001757  -0.00123794  -0.00002289           -2.58     -182.11       -3.37
  -0.00003962  -0.00002289  -0.00125097           -5.83       -3.37     -184.02


     Writing all to output data dir /root/qe_scratch/cand074_B_BiITe_Ba.save/ :
     XML data file, charge density, pseudopotentials, collected wavefunctions
 
     init_run     :     16.67s CPU     21.36s WALL (       1 calls)
     electrons    :    204.17s CPU    248.27s WALL (       1 calls)
     forces       :      0.52s CPU      0.57s WALL (       1 calls)
     stress       :      1.57s CPU      1.59s WALL (       1 calls)

     Called by init_run:
     wfcinit      :      0.28s CPU      0.46s WALL (       1 calls)
     potinit      :     15.23s CPU     19.33s WALL (       1 calls)
     hinit0       :      0.75s CPU      0.88s WALL (       1 calls)

     Called by electrons:
     c_bands      :      9.57s CPU      9.60s WALL (      20 calls)
     sum_band     :      3.29s CPU      3.31s WALL (      20 calls)
     v_of_rho     :      1.78s CPU      2.33s WALL (      20 calls)
     newd         :      2.10s CPU      2.16s WALL (      20 calls)
                                        2.16s GPU  (      20 calls)
     PAW_pot      :    192.69s CPU    237.81s WALL (      20 calls)
     mix_rho      :      1.21s CPU      1.27s WALL (      20 calls)

     Called by c_bands:
     init_us_2    :      0.07s CPU      0.07s WALL (      41 calls)
     cegterg      :      9.29s CPU      9.31s WALL (      20 calls)

     Called by *egterg:
     cdiaghg      :      0.77s CPU      0.80s WALL (      80 calls)
                                        0.80s GPU  (      80 calls)
     h_psi        :      4.42s CPU      4.60s WALL (      82 calls)
                                        4.59s GPU  (      82 calls)
     s_psi        :      0.11s CPU      0.11s WALL (      82 calls)
     g_psi        :      0.00s CPU      0.02s WALL (      61 calls)
                                        0.02s GPU  (      61 calls)

     Called by h_psi:
     h_psi:calbec :      0.09s CPU      1.25s WALL (      82 calls)
                                        1.25s GPU  (      82 calls)
     vloc_psi     :      2.21s CPU      2.22s WALL (      82 calls)
                                        2.22s GPU  (      82 calls)
     add_vuspsi   :      0.10s CPU      1.10s WALL (      82 calls)
                                        1.10s GPU  (      82 calls)

     General routines
     calbec       :      0.09s CPU      0.25s WALL (     107 calls)
     fft          :      4.31s CPU      5.53s WALL (     284 calls)
                                        0.07s GPU  (     264 calls)
     ffts         :      3.49s CPU      4.64s WALL (      40 calls)
                                        0.00s GPU  (      20 calls)
     fftw         :      0.02s CPU      2.31s WALL (    1128 calls)
                                        2.30s GPU  (    1128 calls)
     interpolate  :      8.04s CPU     10.37s WALL (      20 calls)
 
     Parallel routines
 
     PWSCF        :   3m44.53s CPU   4m33.63s WALL

 
   This run was terminated on:  13:33:23   6May2026            

=------------------------------------------------------------------------------=
   JOB DONE.
=------------------------------------------------------------------------------=
Warning: ieee_invalid is signaling
Warning: ieee_divide_by_zero is signaling
Warning: ieee_inexact is signaling
FORTRAN STOP
