--------------------------------------------------------------------------
WARNING: Open MPI tried to bind a process but failed.  This is a
warning only; your job will continue, though performance may
be degraded.

  Local host:        3253031b5b37
  Application name:  /root/qe-7.3.1/bin/pw.x
  Error message:     failed to bind memory
  Location:          ../../../../../orte/mca/rtc/hwloc/rtc_hwloc.c:447

--------------------------------------------------------------------------

     Program PWSCF v.7.3.1 starts on  7May2026 at  2:29:29 

     This program is part of the open-source Quantum ESPRESSO suite
     for quantum simulation of materials; please cite
         "P. Giannozzi et al., J. Phys.:Condens. Matter 21 395502 (2009);
         "P. Giannozzi et al., J. Phys.:Condens. Matter 29 465901 (2017);
         "P. Giannozzi et al., J. Chem. Phys. 152 154105 (2020);
          URL http://www.quantum-espresso.org", 
     in publications or presentations arising from this work. More details at
     http://www.quantum-espresso.org/quote

     Parallel version (MPI & OpenMP), running on       8 processor cores
     Number of MPI processes:                 1
     Threads/MPI process:                     8

     MPI processes distributed on     1 nodes
     91272 MiB available memory on the printing compute node when the environment starts
 
     Reading input from cand237_A_PtSe2_La.in

     Current dimensions of program PWSCF are:
     Max number of different atomic species (ntypx) = 10
     Max number of k-points (npk) =  40000
     Max angular momentum in pseudopotentials (lmaxx) =  4
     file La.UPF: wavefunction(s)  5S 5D 4F renormalized
     file Pt.UPF: wavefunction(s)  6S 5D renormalized
     Message from routine setup:
     using ibrav=0 with symmetry is DISCOURAGED, use correct ibrav instead
 
     Subspace diagonalization in iterative solution of the eigenvalue problem:
     a serial algorithm will be used

 
     G-vector sticks info
     --------------------
     sticks:   dense  smooth     PW     G-vecs:    dense   smooth      PW
     Sum        5611    3745    931               531029   288777   36137
 
     Using Slab Decomposition
 


     bravais-lattice index     =            0
     lattice parameter (alat)  =      21.2496  a.u.
     unit-cell volume          =   13016.9821 (a.u.)^3
     number of atoms/cell      =           28
     number of atomic types    =            3
     number of electrons       =       209.00
     number of Kohn-Sham states=          126
     kinetic-energy cutoff     =      30.0000  Ry
     charge density cutoff     =     180.0000  Ry
     scf convergence threshold =      1.0E-07
     mixing beta               =       0.4000
     number of iterations used =            8  plain     mixing
     Exchange-correlation= PBE
                           (   1   4   3   4   0   0   0)

     GPU acceleration is ACTIVE.  1 visible GPUs per MPI rank


     celldm(1)=  21.249556  celldm(2)=   0.000000  celldm(3)=   0.000000
     celldm(4)=   0.000000  celldm(5)=   0.000000  celldm(6)=   0.000000

     crystal axes: (cart. coord. in units of alat)
               a(1) = (   1.000000   0.000000   0.000000 )  
               a(2) = (  -0.500000   0.866025   0.000000 )  
               a(3) = (   0.000000   0.000000   1.566499 )  

     reciprocal axes: (cart. coord. in units 2 pi/alat)
               b(1) = (  1.000000  0.577350 -0.000000 )  
               b(2) = (  0.000000  1.154700  0.000000 )  
               b(3) = (  0.000000 -0.000000  0.638366 )  


     PseudoPot. # 1 for La read from file:
     /root/qe_pseudos/La.UPF
     MD5 check sum: 6e6ac421535d279511fd22156ed99225
     Pseudo is Projector augmented-wave + core cor, Zval = 11.0
     Generated using &quot;atomic&quot; code by A. Dal Corso  v.6.2.2
     Shape of augmentation charge: PSQ
     Using radial grid of 1253 points,  8 beta functions with: 
                l(1) =   0
                l(2) =   0
                l(3) =   1
                l(4) =   1
                l(5) =   2
                l(6) =   2
                l(7) =   3
                l(8) =   3
     Q(r) pseudized with 0 coefficients 


     PseudoPot. # 2 for Pt read from file:
     /root/qe_pseudos/Pt.UPF
     MD5 check sum: c5224e9cd7a5e36e81f2def9f50bb494
     Pseudo is Projector augmented-wave + core cor, Zval = 10.0
     Generated using &quot;atomic&quot; code by A. Dal Corso  v.6.3
     Shape of augmentation charge: PSQ
     Using radial grid of 1277 points,  6 beta functions with: 
                l(1) =   0
                l(2) =   0
                l(3) =   1
                l(4) =   1
                l(5) =   2
                l(6) =   2
     Q(r) pseudized with 0 coefficients 


     PseudoPot. # 3 for Se read from file:
     /root/qe_pseudos/Se.UPF
     MD5 check sum: 8e2a6847b5cb9faee9497ebb573e71ea
     Pseudo is Ultrasoft + core correction, Zval =  6.0
     Generated using &quot;atomic&quot; code by A. Dal Corso  v.6.3
     Using radial grid of 1211 points,  4 beta functions with: 
                l(1) =   0
                l(2) =   0
                l(3) =   1
                l(4) =   1
     Q(r) pseudized with 0 coefficients 


     atomic species   valence    mass     pseudopotential
     La               11.00   138.90550     La( 1.00)
     Pt               10.00   195.08400     Pt( 1.00)
     Se                6.00    78.97100     Se( 1.00)

      2 Sym. Ops. (no inversion) found



   Cartesian axes

     site n.     atom                  positions (alat units)
         1        Pt     tau(   1) = (  -0.0000007  -0.0006955   0.7830050  )
         2        Pt     tau(   2) = (   0.3331895   0.5776521   0.7833542  )
         3        Pt     tau(   3) = (   0.5000002   0.2886834   0.7833761  )
         4        Pt     tau(   4) = (  -0.1661938   0.2898651   0.7831932  )
         5        Pt     tau(   5) = (   0.6668233  -0.0006824   0.7829816  )
         6        Pt     tau(   6) = (  -0.0000001   0.5765610   0.7836960  )
         7        Pt     tau(   7) = (  -0.3331892   0.5776518   0.7833542  )
         8        Pt     tau(   8) = (   0.1661936   0.2898657   0.7831932  )
         9        Pt     tau(   9) = (   0.3331775  -0.0006829   0.7829815  )
        10        Se     tau(  10) = (   0.5000001   0.0957614   0.8983807  )
        11        Se     tau(  11) = (   0.4999999   0.6741362   0.9001092  )
        12        Se     tau(  12) = (   0.1649443   0.0962863   0.9005047  )
        13        Se     tau(  13) = (   0.5000000   0.4809248   0.6672721  )
        14        Se     tau(  14) = (   0.6665549   0.3851036   0.8988717  )
        15        Se     tau(  15) = (   0.0000000   0.1925655   0.6677244  )
        16        Se     tau(  16) = (   0.6668340   0.1928540   0.6675588  )
        17        Se     tau(  17) = (   0.8350556   0.0962862   0.9005044  )
        18        Se     tau(  18) = (   0.0000001   0.3849717   0.8996390  )
        19        Se     tau(  19) = (   0.0000001   0.7676538   0.6666947  )
        20        Se     tau(  20) = (   0.1661652   0.6729474   0.8987718  )
        21        Se     tau(  21) = (  -0.1664848   0.4821523   0.6671316  )
        22        Se     tau(  22) = (   0.1664848   0.4821523   0.6671316  )
        23        Se     tau(  23) = (   0.3335485   0.7698286   0.6677381  )
        24        Se     tau(  24) = (  -0.1661651   0.6729476   0.8987718  )
        25        Se     tau(  25) = (   0.3331662   0.1928540   0.6675585  )
        26        Se     tau(  26) = (  -0.3335485   0.7698286   0.6677380  )
        27        Se     tau(  27) = (   0.3334451   0.3851036   0.8988716  )
        28        La     tau(  28) = (  -0.0000006   0.0959537   1.1552567  )

     number of k points=     1  Methfessel-Paxton smearing, width (Ry)=  0.0100
                       cart. coord. in units 2pi/alat
        k(    1) = (   0.0000000   0.0000000   0.0000000), wk =   2.0000000

     Dense  grid:   531029 G-vectors     FFT dimensions: (  96,  96, 144)

     Smooth grid:   288777 G-vectors     FFT dimensions: (  75,  75, 120)

     Estimated max dynamical RAM per process >       5.40 GB

 %%%%%%%%%%%%%%%%%%%%%%%%%%%%%%%%%%%%%%%%%%%%%%%%%%%%%%%%%%%%%%%%%%%%%%%%%%%%%%
     Error in routine  ylmr2 (15):
     l too large, or wrong number of Ylm required
 %%%%%%%%%%%%%%%%%%%%%%%%%%%%%%%%%%%%%%%%%%%%%%%%%%%%%%%%%%%%%%%%%%%%%%%%%%%%%%

     stopping ...
--------------------------------------------------------------------------
MPI_ABORT was invoked on rank 0 in communicator MPI_COMM_WORLD
with errorcode 15.

NOTE: invoking MPI_ABORT causes Open MPI to kill all MPI processes.
You may or may not see output from other processes, depending on
exactly when Open MPI kills them.
--------------------------------------------------------------------------
