--------------------------------------------------------------------------
WARNING: Open MPI tried to bind a process but failed.  This is a
warning only; your job will continue, though performance may
be degraded.

  Local host:        3253031b5b37
  Application name:  /root/qe-7.3.1/bin/pw.x
  Error message:     failed to bind memory
  Location:          ../../../../../orte/mca/rtc/hwloc/rtc_hwloc.c:447

--------------------------------------------------------------------------

     Program PWSCF v.7.3.1 starts on  7May2026 at  2: 5:36 

     This program is part of the open-source Quantum ESPRESSO suite
     for quantum simulation of materials; please cite
         "P. Giannozzi et al., J. Phys.:Condens. Matter 21 395502 (2009);
         "P. Giannozzi et al., J. Phys.:Condens. Matter 29 465901 (2017);
         "P. Giannozzi et al., J. Chem. Phys. 152 154105 (2020);
          URL http://www.quantum-espresso.org", 
     in publications or presentations arising from this work. More details at
     http://www.quantum-espresso.org/quote

     Parallel version (MPI & OpenMP), running on       8 processor cores
     Number of MPI processes:                 1
     Threads/MPI process:                     8

     MPI processes distributed on     1 nodes
     91778 MiB available memory on the printing compute node when the environment starts
 
     Reading input from cand201_B_V2CO2_Na.in

     Current dimensions of program PWSCF are:
     Max number of different atomic species (ntypx) = 10
     Max number of k-points (npk) =  40000
     Max angular momentum in pseudopotentials (lmaxx) =  4
     file Na.UPF: wavefunction(s)  2P renormalized
     file V.UPF: wavefunction(s)  3P 3D renormalized
 
     Subspace diagonalization in iterative solution of the eigenvalue problem:
     a serial algorithm will be used

 
     G-vector sticks info
     --------------------
     sticks:   dense  smooth     PW     G-vecs:    dense   smooth      PW
     Sum        5971    4009   1003               625303   340567   42465
 
     Using Slab Decomposition
 


     bravais-lattice index     =            0
     lattice parameter (alat)  =      21.9701  a.u.
     unit-cell volume          =   15337.4296 (a.u.)^3
     number of atoms/cell      =           81
     number of atomic types    =            4
     number of electrons       =       681.00
     number of Kohn-Sham states=          409
     kinetic-energy cutoff     =      30.0000  Ry
     charge density cutoff     =     180.0000  Ry
     scf convergence threshold =      1.0E-07
     mixing beta               =       0.4000
     number of iterations used =            8  plain     mixing
     Exchange-correlation= PBE
                           (   1   4   3   4   0   0   0)

     GPU acceleration is ACTIVE.  1 visible GPUs per MPI rank


     celldm(1)=  21.970122  celldm(2)=   0.000000  celldm(3)=   0.000000
     celldm(4)=   0.000000  celldm(5)=   0.000000  celldm(6)=   0.000000

     crystal axes: (cart. coord. in units of alat)
               a(1) = (   1.000000   0.000000   0.000000 )  
               a(2) = (  -0.500000   0.866025   0.000000 )  
               a(3) = (   0.000000   0.000000   1.670031 )  

     reciprocal axes: (cart. coord. in units 2 pi/alat)
               b(1) = (  1.000000  0.577350 -0.000000 )  
               b(2) = (  0.000000  1.154700  0.000000 )  
               b(3) = (  0.000000 -0.000000  0.598791 )  


     PseudoPot. # 1 for C  read from file:
     /root/qe_pseudos/C.UPF
     MD5 check sum: 9b35a7431356f8229172919cb1fa74b8
     Pseudo is Norm-conserving, Zval =  4.0
     Generated by new atomic code, or converted to UPF format
     Using radial grid of 1073 points,  1 beta functions with: 
                l(1) =   0

     PseudoPot. # 2 for Na read from file:
     /root/qe_pseudos/Na.UPF
     MD5 check sum: 05b4deb74e3932c23ab016979dc8b5d4
     Pseudo is Projector augmented-wave + core cor, Zval =  9.0
     Generated using &quot;atomic&quot; code by A. Dal Corso  v.6.3
     Shape of augmentation charge: PSQ
     Using radial grid of 1121 points,  4 beta functions with: 
                l(1) =   0
                l(2) =   0
                l(3) =   1
                l(4) =   1
     Q(r) pseudized with 0 coefficients 


     PseudoPot. # 3 for O  read from file:
     /root/qe_pseudos/O.UPF
     MD5 check sum: c7f41d994d4e90c1781f5cd713c45011
     Pseudo is Projector augmented-wave + core cor, Zval =  6.0
     Generated using "atomic" code by A. Dal Corso (espresso distribution)
     Shape of augmentation charge: BESSEL
     Using radial grid of 1095 points,  4 beta functions with: 
                l(1) =   0
                l(2) =   0
                l(3) =   1
                l(4) =   1
     Q(r) pseudized with 0 coefficients 


     PseudoPot. # 4 for V  read from file:
     /root/qe_pseudos/V.UPF
     MD5 check sum: 79b3eb63147daf0b665d9f1bcc691206
     Pseudo is Ultrasoft + core correction, Zval = 13.0
     Generated using &quot;atomic&quot; code by A. Dal Corso  v.6.2.2
     Using radial grid of 1181 points,  6 beta functions with: 
                l(1) =   0
                l(2) =   0
                l(3) =   1
                l(4) =   1
                l(5) =   2
                l(6) =   2
     Q(r) pseudized with 0 coefficients 


     atomic species   valence    mass     pseudopotential
     C                 4.00    12.01100     C ( 1.00)
     Na                9.00    22.98980     Na( 1.00)
     O                 6.00    15.99900     O ( 1.00)
     V                13.00    50.94150     V ( 1.00)

     No symmetry found



   Cartesian axes

     site n.     atom                  positions (alat units)
         1        C      tau(   1) = (   0.1254431   0.6492719   0.8363565  )
         2        C      tau(   2) = (   0.1248678   0.2164443   0.8364099  )
         3        C      tau(   3) = (  -0.1254467   0.6492740   0.8363550  )
         4        C      tau(   4) = (   0.2514489  -0.0008613   0.8343678  )
         5        C      tau(   5) = (  -0.3749183   0.6497058   0.8354607  )
         6        C      tau(   6) = (   0.5000019   0.4330080   0.8355014  )
         7        C      tau(   7) = (   0.5000010   0.0004767   0.8363484  )
         8        C      tau(   8) = (   0.0000026   0.4347317   0.8343791  )
         9        C      tau(   9) = (  -0.2498023   0.4329871   0.8354467  )
        10        C      tau(  10) = (   0.7485538  -0.0008611   0.8343674  )
        11        C      tau(  11) = (   0.6251254   0.2163399   0.8354602  )
        12        C      tau(  12) = (  -0.1248668   0.2164383   0.8364102  )
        13        C      tau(  13) = (   0.3749206   0.6497036   0.8354610  )
        14        C      tau(  14) = (   0.2498022   0.4329863   0.8354592  )
        15        C      tau(  15) = (  -0.0000011   0.0001424   0.8364066  )
        16        C      tau(  16) = (   0.3748755   0.2163421   0.8354630  )
        17        O      tau(  17) = (   0.3742050   0.3603339   1.0251838  )
        18        O      tau(  18) = (   0.3750581   0.5052078   0.6461070  )
        19        O      tau(  19) = (  -0.0000018   0.5770360   1.0251223  )
        20        O      tau(  20) = (   0.1254115   0.5053977   0.6461018  )
        21        O      tau(  21) = (   0.8751406   0.0723018   0.6463269  )
        22        O      tau(  22) = (   0.2500375   0.5773622   1.0268470  )
        23        O      tau(  23) = (   0.0000043   0.7216287   0.6485126  )
        24        O      tau(  24) = (   0.4999985   0.7210174   0.6441659  )
        25        O      tau(  25) = (   0.7526872   0.1429886   1.0289254  )
        26        O      tau(  26) = (   0.2500570   0.7212091   0.6460661  )
        27        O      tau(  27) = (   0.6246584   0.0724866   0.6461001  )
        28        O      tau(  28) = (   0.4999978   0.2886869   0.6460728  )
        29        O      tau(  29) = (  -0.1253325   0.7939937   1.0250890  )
        30        O      tau(  30) = (   0.5000024   0.1443795   1.0268457  )
        31        O      tau(  31) = (   0.1225192   0.3592157   1.0289168  )
        32        O      tau(  32) = (  -0.1254124   0.5054000   0.6461025  )
        33        O      tau(  33) = (   0.6249392   0.5052093   0.6461047  )
        34        O      tau(  34) = (  -0.2500401   0.5773599   1.0268426  )
        35        O      tau(  35) = (   0.2505248   0.2889592   0.6441886  )
        36        O      tau(  36) = (   0.4999998   0.5783115   1.0251987  )
        37        O      tau(  37) = (  -0.3751870   0.7968208   1.0289252  )
        38        O      tau(  38) = (   0.0000055   0.2884683   0.6462941  )
        39        O      tau(  39) = (   0.1248621   0.0723017   0.6463263  )
        40        O      tau(  40) = (  -0.2500540   0.7212115   0.6460602  )
        41        O      tau(  41) = (   0.2473211   0.1429905   1.0289192  )
        42        O      tau(  42) = (   0.3753359   0.0724914   0.6460985  )
        43        O      tau(  43) = (   0.3751911   0.7968169   1.0289248  )
        44        O      tau(  44) = (   0.7494780   0.2889502   0.6441811  )
        45        O      tau(  45) = (   0.6258018   0.3603384   1.0251844  )
        46        O      tau(  46) = (   0.1253295   0.7939936   1.0250910  )
        47        O      tau(  47) = (   0.0000007   0.1444258   1.0314024  )
        48        O      tau(  48) = (  -0.1225191   0.3592168   1.0289118  )
        49        V      tau(  49) = (   0.5000014   0.7229287   0.9348849  )
        50        V      tau(  50) = (   0.7510593   0.1474843   0.7325380  )
        51        V      tau(  51) = (   0.7510989   0.2880695   0.9348844  )
        52        V      tau(  52) = (   0.8650921   0.0664528   0.9315243  )
        53        V      tau(  53) = (   0.6226634   0.5038438   0.9366295  )
        54        V      tau(  54) = (   0.5000057   0.5755040   0.7335201  )
        55        V      tau(  55) = (   0.6233988   0.3617582   0.7334843  )
        56        V      tau(  56) = (   0.3782546   0.7932222   0.7325345  )
        57        V      tau(  57) = (   0.0000051   0.1443337   0.7355045  )
        58        V      tau(  58) = (   0.4999690   0.1410154   0.7335708  )
        59        V      tau(  59) = (   0.1264359   0.7946895   0.7339659  )
        60        V      tau(  60) = (   0.1349078   0.0664568   0.9315283  )
        61        V      tau(  61) = (  -0.1271314   0.3583432   0.7325572  )
        62        V      tau(  62) = (   0.0000166   0.3000963   0.9315222  )
        63        V      tau(  63) = (  -0.2471090   0.5790218   0.7335270  )
        64        V      tau(  64) = (  -0.1276210   0.5063253   0.9390181  )
        65        V      tau(  65) = (  -0.3782719   0.7932044   0.7325385  )
        66        V      tau(  66) = (  -0.2503206   0.7187822   0.9390592  )
        67        V      tau(  67) = (   0.2488960   0.1475063   0.7325387  )
        68        V      tau(  68) = (   0.3773471   0.0738608   0.9390343  )
        69        V      tau(  69) = (   0.2503120   0.7187956   0.9390421  )
        70        V      tau(  70) = (   0.1271416   0.3583505   0.7325523  )
        71        V      tau(  71) = (   0.0000010   0.5757567   0.7339755  )
        72        V      tau(  72) = (   0.1276224   0.5063362   0.9390369  )
        73        V      tau(  73) = (  -0.1264427   0.7946923   0.7339662  )
        74        V      tau(  74) = (   0.0000031   0.7216578   0.9385867  )
        75        V      tau(  75) = (   0.6226681   0.0738553   0.9390222  )
        76        V      tau(  76) = (   0.3766178   0.3617770   0.7334919  )
        77        V      tau(  77) = (   0.5000208   0.2913610   0.9366383  )
        78        V      tau(  78) = (   0.2471133   0.5790095   0.7335432  )
        79        V      tau(  79) = (   0.3773264   0.5038369   0.9366518  )
        80        V      tau(  80) = (   0.2489339   0.2880539   0.9348877  )
        81        Na     tau(  81) = (  -0.0000428   0.1442800   1.1938823  )

     number of k points=     1  Methfessel-Paxton smearing, width (Ry)=  0.0100
                       cart. coord. in units 2pi/alat
        k(    1) = (   0.0000000   0.0000000   0.0000000), wk =   2.0000000

     Dense  grid:   625303 G-vectors     FFT dimensions: (  96,  96, 160)

     Smooth grid:   340567 G-vectors     FFT dimensions: (  80,  80, 128)

     Estimated max dynamical RAM per process >       3.83 GB

     Check: negative core charge=   -0.000042

     Initial potential from superposition of free atoms

     starting charge     672.9649, renormalised to     681.0000

     negative rho (up, down):  4.227E-01 0.000E+00
     Starting wfcs are  581 randomized atomic wfcs
     Checking if some PAW data can be deallocated... 

     total cpu time spent up to now is       13.0 secs

     Self-consistent Calculation

     iteration #  1     ecut=    30.00 Ry     beta= 0.40
     Davidson diagonalization with overlap
     ethr =  1.00E-02,  avg # of iterations =  2.0

     negative rho (up, down):  4.330E-01 0.000E+00

     total cpu time spent up to now is       19.5 secs

     total energy              =   -6257.95914837 Ry
     estimated scf accuracy    <      58.08914064 Ry

     iteration #  2     ecut=    30.00 Ry     beta= 0.40
     Davidson diagonalization with overlap
     ethr =  8.53E-03,  avg # of iterations =  4.0

     negative rho (up, down):  4.564E-01 0.000E+00

     total cpu time spent up to now is       26.2 secs

     total energy              =   -6259.91807043 Ry
     estimated scf accuracy    <      68.57203773 Ry

     iteration #  3     ecut=    30.00 Ry     beta= 0.40
     Davidson diagonalization with overlap
     ethr =  8.53E-03,  avg # of iterations =  3.0

     negative rho (up, down):  5.322E-01 0.000E+00

     total cpu time spent up to now is       32.4 secs

     total energy              =   -6261.20140245 Ry
     estimated scf accuracy    <     343.59324720 Ry

     iteration #  4     ecut=    30.00 Ry     beta= 0.40
     Davidson diagonalization with overlap
     ethr =  8.53E-03,  avg # of iterations =  2.0

     negative rho (up, down):  5.107E-01 0.000E+00

     total cpu time spent up to now is       38.5 secs

     total energy              =   -6274.62425409 Ry
     estimated scf accuracy    <      30.28274120 Ry

     iteration #  5     ecut=    30.00 Ry     beta= 0.40
     Davidson diagonalization with overlap
     ethr =  4.45E-03,  avg # of iterations =  2.0

     negative rho (up, down):  4.955E-01 0.000E+00

     total cpu time spent up to now is       44.6 secs

     total energy              =   -6276.20100337 Ry
     estimated scf accuracy    <       8.07895408 Ry

     iteration #  6     ecut=    30.00 Ry     beta= 0.40
     Davidson diagonalization with overlap
     ethr =  1.19E-03,  avg # of iterations =  2.0

     negative rho (up, down):  4.973E-01 0.000E+00

     total cpu time spent up to now is       50.7 secs

     total energy              =   -6276.49811520 Ry
     estimated scf accuracy    <       5.27031899 Ry

     iteration #  7     ecut=    30.00 Ry     beta= 0.40
     Davidson diagonalization with overlap
     ethr =  7.74E-04,  avg # of iterations =  2.0

     negative rho (up, down):  5.058E-01 0.000E+00

     total cpu time spent up to now is       56.8 secs

     total energy              =   -6276.56922070 Ry
     estimated scf accuracy    <       2.59313827 Ry

     iteration #  8     ecut=    30.00 Ry     beta= 0.40
     Davidson diagonalization with overlap
     ethr =  3.81E-04,  avg # of iterations =  3.0

     negative rho (up, down):  5.087E-01 0.000E+00

     total cpu time spent up to now is       63.1 secs

     total energy              =   -6276.49873280 Ry
     estimated scf accuracy    <       3.75987726 Ry

     iteration #  9     ecut=    30.00 Ry     beta= 0.40
     Davidson diagonalization with overlap
     ethr =  3.81E-04,  avg # of iterations =  2.0

     negative rho (up, down):  5.154E-01 0.000E+00

     total cpu time spent up to now is       69.2 secs

     total energy              =   -6276.57568671 Ry
     estimated scf accuracy    <       0.94181762 Ry

     iteration # 10     ecut=    30.00 Ry     beta= 0.40
     Davidson diagonalization with overlap
     ethr =  1.38E-04,  avg # of iterations = 18.0

     negative rho (up, down):  5.203E-01 0.000E+00

     total cpu time spent up to now is       76.2 secs

     total energy              =   -6276.66837629 Ry
     estimated scf accuracy    <       0.36147245 Ry

     iteration # 11     ecut=    30.00 Ry     beta= 0.40
     Davidson diagonalization with overlap
     ethr =  5.31E-05,  avg # of iterations =  2.0

     negative rho (up, down):  5.242E-01 0.000E+00

     total cpu time spent up to now is       82.5 secs

     total energy              =   -6276.65822260 Ry
     estimated scf accuracy    <       0.96378293 Ry

     iteration # 12     ecut=    30.00 Ry     beta= 0.40
     Davidson diagonalization with overlap
     ethr =  5.31E-05,  avg # of iterations =  1.0
     Minimization algorithm failed to find Fermi energy: reverting to bisection
     Possible cause: smearing is larger than the electronic band-gap.

     negative rho (up, down):  5.253E-01 0.000E+00

     total cpu time spent up to now is       88.4 secs

     total energy              =   -6276.69535209 Ry
     estimated scf accuracy    <       0.24522721 Ry

     iteration # 13     ecut=    30.00 Ry     beta= 0.40
     Davidson diagonalization with overlap
     ethr =  3.60E-05,  avg # of iterations =  2.0
     Minimization algorithm failed to find Fermi energy: reverting to bisection
     Possible cause: smearing is larger than the electronic band-gap.

     negative rho (up, down):  5.275E-01 0.000E+00

     total cpu time spent up to now is       94.5 secs

     total energy              =   -6276.70838294 Ry
     estimated scf accuracy    <       0.09428340 Ry

     iteration # 14     ecut=    30.00 Ry     beta= 0.40
     Davidson diagonalization with overlap
     ethr =  1.38E-05,  avg # of iterations =  9.0

     negative rho (up, down):  5.313E-01 0.000E+00

     total cpu time spent up to now is      101.0 secs

     total energy              =   -6276.71316527 Ry
     estimated scf accuracy    <       0.02423337 Ry

     iteration # 15     ecut=    30.00 Ry     beta= 0.40
     Davidson diagonalization with overlap
     c_bands:  3 eigenvalues not converged
     ethr =  3.56E-06,  avg # of iterations = 20.0
     Minimization algorithm failed to find Fermi energy: reverting to bisection
     Possible cause: smearing is larger than the electronic band-gap.

     negative rho (up, down):  5.317E-01 0.000E+00

     total cpu time spent up to now is      109.0 secs

     total energy              =   -6276.70698028 Ry
     estimated scf accuracy    <       0.26273809 Ry

     iteration # 16     ecut=    30.00 Ry     beta= 0.40
     Davidson diagonalization with overlap
     c_bands:  1 eigenvalues not converged
     ethr =  3.56E-06,  avg # of iterations = 20.0
     Minimization algorithm failed to find Fermi energy: reverting to bisection
     Possible cause: smearing is larger than the electronic band-gap.

     negative rho (up, down):  5.328E-01 0.000E+00

     total cpu time spent up to now is      116.6 secs

     total energy              =   -6276.71335153 Ry
     estimated scf accuracy    <       0.13578502 Ry

     iteration # 17     ecut=    30.00 Ry     beta= 0.40
     Davidson diagonalization with overlap
     ethr =  3.56E-06,  avg # of iterations =  7.0

     negative rho (up, down):  5.319E-01 0.000E+00

     total cpu time spent up to now is      122.9 secs

     total energy              =   -6276.71785965 Ry
     estimated scf accuracy    <       0.01850091 Ry

     iteration # 18     ecut=    30.00 Ry     beta= 0.40
     Davidson diagonalization with overlap
     ethr =  2.72E-06,  avg # of iterations =  2.0

     negative rho (up, down):  5.289E-01 0.000E+00

     total cpu time spent up to now is      129.0 secs

     total energy              =   -6276.71717992 Ry
     estimated scf accuracy    <       0.01074856 Ry

     iteration # 19     ecut=    30.00 Ry     beta= 0.40
     Davidson diagonalization with overlap
     ethr =  1.58E-06,  avg # of iterations = 15.0

     negative rho (up, down):  5.284E-01 0.000E+00

     total cpu time spent up to now is      136.1 secs

     total energy              =   -6276.71651111 Ry
     estimated scf accuracy    <       0.04229828 Ry

     iteration # 20     ecut=    30.00 Ry     beta= 0.40
     Davidson diagonalization with overlap
     ethr =  1.58E-06,  avg # of iterations =  2.0

     negative rho (up, down):  5.292E-01 0.000E+00

     total cpu time spent up to now is      142.2 secs

     total energy              =   -6276.71813686 Ry
     estimated scf accuracy    <       0.01866872 Ry

     iteration # 21     ecut=    30.00 Ry     beta= 0.40
     Davidson diagonalization with overlap
     ethr =  1.58E-06,  avg # of iterations =  2.0

     negative rho (up, down):  5.293E-01 0.000E+00

     total cpu time spent up to now is      148.3 secs

     total energy              =   -6276.71890728 Ry
     estimated scf accuracy    <       0.00542658 Ry

     iteration # 22     ecut=    30.00 Ry     beta= 0.40
     Davidson diagonalization with overlap
     ethr =  7.97E-07,  avg # of iterations =  2.0

     negative rho (up, down):  5.285E-01 0.000E+00

     total cpu time spent up to now is      154.3 secs

     total energy              =   -6276.71912242 Ry
     estimated scf accuracy    <       0.00544739 Ry

     iteration # 23     ecut=    30.00 Ry     beta= 0.40
     Davidson diagonalization with overlap
     ethr =  7.97E-07,  avg # of iterations =  1.0

     negative rho (up, down):  5.277E-01 0.000E+00

     total cpu time spent up to now is      160.2 secs

     total energy              =   -6276.71933656 Ry
     estimated scf accuracy    <       0.00055338 Ry

     iteration # 24     ecut=    30.00 Ry     beta= 0.40
     Davidson diagonalization with overlap
     ethr =  8.13E-08,  avg # of iterations = 14.0

     negative rho (up, down):  5.271E-01 0.000E+00

     total cpu time spent up to now is      167.5 secs

     total energy              =   -6276.71943434 Ry
     estimated scf accuracy    <       0.00214823 Ry

     iteration # 25     ecut=    30.00 Ry     beta= 0.40
     Davidson diagonalization with overlap
     ethr =  8.13E-08,  avg # of iterations =  2.0

     negative rho (up, down):  5.267E-01 0.000E+00

     total cpu time spent up to now is      173.6 secs

     total energy              =   -6276.71953418 Ry
     estimated scf accuracy    <       0.00047305 Ry

     iteration # 26     ecut=    30.00 Ry     beta= 0.40
     Davidson diagonalization with overlap
     ethr =  6.95E-08,  avg # of iterations =  3.0
     Minimization algorithm failed to find Fermi energy: reverting to bisection
     Possible cause: smearing is larger than the electronic band-gap.

     negative rho (up, down):  5.263E-01 0.000E+00

     total cpu time spent up to now is      179.9 secs

     total energy              =   -6276.71955560 Ry
     estimated scf accuracy    <       0.00213693 Ry

     iteration # 27     ecut=    30.00 Ry     beta= 0.40
     Davidson diagonalization with overlap
     ethr =  6.95E-08,  avg # of iterations =  3.0

     negative rho (up, down):  5.259E-01 0.000E+00

     total cpu time spent up to now is      186.1 secs

     total energy              =   -6276.71966938 Ry
     estimated scf accuracy    <       0.00116721 Ry

     iteration # 28     ecut=    30.00 Ry     beta= 0.40
     Davidson diagonalization with overlap
     ethr =  6.95E-08,  avg # of iterations =  2.0

     negative rho (up, down):  5.256E-01 0.000E+00

     total cpu time spent up to now is      192.3 secs

     total energy              =   -6276.71973886 Ry
     estimated scf accuracy    <       0.00012755 Ry

     iteration # 29     ecut=    30.00 Ry     beta= 0.40
     Davidson diagonalization with overlap
     ethr =  1.87E-08,  avg # of iterations =  6.0

     negative rho (up, down):  5.253E-01 0.000E+00

     total cpu time spent up to now is      198.8 secs

     total energy              =   -6276.71977427 Ry
     estimated scf accuracy    <       0.00016923 Ry

     iteration # 30     ecut=    30.00 Ry     beta= 0.40
     Davidson diagonalization with overlap
     ethr =  1.87E-08,  avg # of iterations =  3.0

     negative rho (up, down):  5.252E-01 0.000E+00

     total cpu time spent up to now is      205.1 secs

     total energy              =   -6276.71981564 Ry
     estimated scf accuracy    <       0.00010060 Ry

     iteration # 31     ecut=    30.00 Ry     beta= 0.40
     Davidson diagonalization with overlap
     ethr =  1.48E-08,  avg # of iterations =  3.0

     negative rho (up, down):  5.249E-01 0.000E+00

     total cpu time spent up to now is      211.3 secs

     total energy              =   -6276.71991002 Ry
     estimated scf accuracy    <       0.00004886 Ry

     iteration # 32     ecut=    30.00 Ry     beta= 0.40
     Davidson diagonalization with overlap
     ethr =  7.17E-09,  avg # of iterations =  6.0

     negative rho (up, down):  5.248E-01 0.000E+00

     total cpu time spent up to now is      217.8 secs

     total energy              =   -6276.71994820 Ry
     estimated scf accuracy    <       0.00014271 Ry

     iteration # 33     ecut=    30.00 Ry     beta= 0.40
     Davidson diagonalization with overlap
     ethr =  7.17E-09,  avg # of iterations =  3.0

     negative rho (up, down):  5.247E-01 0.000E+00

     total cpu time spent up to now is      224.2 secs

     total energy              =   -6276.72000652 Ry
     estimated scf accuracy    <       0.00004471 Ry

     iteration # 34     ecut=    30.00 Ry     beta= 0.40
     Davidson diagonalization with overlap
     ethr =  6.57E-09,  avg # of iterations =  3.0

     negative rho (up, down):  5.247E-01 0.000E+00

     total cpu time spent up to now is      230.5 secs

     total energy              =   -6276.72004545 Ry
     estimated scf accuracy    <       0.00006843 Ry

     iteration # 35     ecut=    30.00 Ry     beta= 0.40
     Davidson diagonalization with overlap
     ethr =  6.57E-09,  avg # of iterations =  6.0

     negative rho (up, down):  5.245E-01 0.000E+00

     total cpu time spent up to now is      237.1 secs

     total energy              =   -6276.72017005 Ry
     estimated scf accuracy    <       0.00004518 Ry

     iteration # 36     ecut=    30.00 Ry     beta= 0.40
     Davidson diagonalization with overlap
     ethr =  6.57E-09,  avg # of iterations =  5.0
     Minimization algorithm failed to find Fermi energy: reverting to bisection
     Possible cause: smearing is larger than the electronic band-gap.

     negative rho (up, down):  5.247E-01 0.000E+00

     total cpu time spent up to now is      243.5 secs

     total energy              =   -6276.72016320 Ry
     estimated scf accuracy    <       0.00006592 Ry

     iteration # 37     ecut=    30.00 Ry     beta= 0.40
     Davidson diagonalization with overlap
     ethr =  6.57E-09,  avg # of iterations =  5.0

     negative rho (up, down):  5.249E-01 0.000E+00

     total cpu time spent up to now is      250.0 secs

     total energy              =   -6276.72018993 Ry
     estimated scf accuracy    <       0.00027434 Ry

     iteration # 38     ecut=    30.00 Ry     beta= 0.40
     Davidson diagonalization with overlap
     ethr =  6.57E-09,  avg # of iterations =  6.0

     negative rho (up, down):  5.248E-01 0.000E+00

     total cpu time spent up to now is      256.5 secs

     total energy              =   -6276.72028155 Ry
     estimated scf accuracy    <       0.00001968 Ry

     iteration # 39     ecut=    30.00 Ry     beta= 0.40
     Davidson diagonalization with overlap
     ethr =  2.89E-09,  avg # of iterations =  6.0

     negative rho (up, down):  5.250E-01 0.000E+00

     total cpu time spent up to now is      263.2 secs

     total energy              =   -6276.72031773 Ry
     estimated scf accuracy    <       0.00002487 Ry

     iteration # 40     ecut=    30.00 Ry     beta= 0.40
     Davidson diagonalization with overlap
     ethr =  2.89E-09,  avg # of iterations =  6.0
     Minimization algorithm failed to find Fermi energy: reverting to bisection
     Possible cause: smearing is larger than the electronic band-gap.

     negative rho (up, down):  5.252E-01 0.000E+00

     total cpu time spent up to now is      269.9 secs

     total energy              =   -6276.72035136 Ry
     estimated scf accuracy    <       0.00000987 Ry

     iteration # 41     ecut=    30.00 Ry     beta= 0.40
     Davidson diagonalization with overlap
     ethr =  1.45E-09,  avg # of iterations =  6.0

     negative rho (up, down):  5.254E-01 0.000E+00

     total cpu time spent up to now is      276.6 secs

     total energy              =   -6276.72038579 Ry
     estimated scf accuracy    <       0.00001645 Ry

     iteration # 42     ecut=    30.00 Ry     beta= 0.40
     Davidson diagonalization with overlap
     ethr =  1.45E-09,  avg # of iterations =  6.0

     negative rho (up, down):  5.257E-01 0.000E+00

     total cpu time spent up to now is      283.2 secs

     total energy              =   -6276.72041040 Ry
     estimated scf accuracy    <       0.00001899 Ry

     iteration # 43     ecut=    30.00 Ry     beta= 0.40
     Davidson diagonalization with overlap
     ethr =  1.45E-09,  avg # of iterations =  5.0

     negative rho (up, down):  5.261E-01 0.000E+00

     total cpu time spent up to now is      289.8 secs

     total energy              =   -6276.72040455 Ry
     estimated scf accuracy    <       0.00001159 Ry

     iteration # 44     ecut=    30.00 Ry     beta= 0.40
     Davidson diagonalization with overlap
     ethr =  1.45E-09,  avg # of iterations =  6.0

     negative rho (up, down):  5.267E-01 0.000E+00

     total cpu time spent up to now is      296.5 secs

     total energy              =   -6276.72035770 Ry
     estimated scf accuracy    <       0.00004269 Ry

     iteration # 45     ecut=    30.00 Ry     beta= 0.40
     Davidson diagonalization with overlap
     ethr =  1.45E-09,  avg # of iterations =  6.0

     negative rho (up, down):  5.272E-01 0.000E+00

     total cpu time spent up to now is      303.0 secs

     total energy              =   -6276.72032251 Ry
     estimated scf accuracy    <       0.00008249 Ry

     iteration # 46     ecut=    30.00 Ry     beta= 0.40
     Davidson diagonalization with overlap
     ethr =  1.45E-09,  avg # of iterations =  5.0

     negative rho (up, down):  5.278E-01 0.000E+00

     total cpu time spent up to now is      309.6 secs

     total energy              =   -6276.72027490 Ry
     estimated scf accuracy    <       0.00009560 Ry

     iteration # 47     ecut=    30.00 Ry     beta= 0.40
     Davidson diagonalization with overlap
     ethr =  1.45E-09,  avg # of iterations =  5.0

     negative rho (up, down):  5.283E-01 0.000E+00

     total cpu time spent up to now is      316.1 secs

     total energy              =   -6276.72024173 Ry
     estimated scf accuracy    <       0.00015813 Ry

     iteration # 48     ecut=    30.00 Ry     beta= 0.40
     Davidson diagonalization with overlap
     ethr =  1.45E-09,  avg # of iterations =  6.0

     negative rho (up, down):  5.284E-01 0.000E+00

     total cpu time spent up to now is      322.8 secs

     total energy              =   -6276.72035470 Ry
     estimated scf accuracy    <       0.00017945 Ry

     iteration # 49     ecut=    30.00 Ry     beta= 0.40
     Davidson diagonalization with overlap
     ethr =  1.45E-09,  avg # of iterations =  6.0

     negative rho (up, down):  5.284E-01 0.000E+00

     total cpu time spent up to now is      329.3 secs

     total energy              =   -6276.72048474 Ry
     estimated scf accuracy    <       0.00021831 Ry

     iteration # 50     ecut=    30.00 Ry     beta= 0.40
     Davidson diagonalization with overlap
     ethr =  1.45E-09,  avg # of iterations =  6.0
     Minimization algorithm failed to find Fermi energy: reverting to bisection
     Possible cause: smearing is larger than the electronic band-gap.

     negative rho (up, down):  5.288E-01 0.000E+00

     total cpu time spent up to now is      336.1 secs

     total energy              =   -6276.72050086 Ry
     estimated scf accuracy    <       0.00021868 Ry

     iteration # 51     ecut=    30.00 Ry     beta= 0.40
     Davidson diagonalization with overlap
     ethr =  1.45E-09,  avg # of iterations =  6.0

     negative rho (up, down):  5.292E-01 0.000E+00

     total cpu time spent up to now is      342.7 secs

     total energy              =   -6276.72053454 Ry
     estimated scf accuracy    <       0.00010584 Ry

     iteration # 52     ecut=    30.00 Ry     beta= 0.40
     Davidson diagonalization with overlap
     ethr =  1.45E-09,  avg # of iterations =  6.0

     negative rho (up, down):  5.292E-01 0.000E+00

     total cpu time spent up to now is      349.3 secs

     total energy              =   -6276.72065430 Ry
     estimated scf accuracy    <       0.00009157 Ry

     iteration # 53     ecut=    30.00 Ry     beta= 0.40
     Davidson diagonalization with overlap
     ethr =  1.45E-09,  avg # of iterations =  9.0
     Minimization algorithm failed to find Fermi energy: reverting to bisection
     Possible cause: smearing is larger than the electronic band-gap.

     negative rho (up, down):  5.303E-01 0.000E+00

     total cpu time spent up to now is      356.5 secs

     total energy              =   -6276.72047244 Ry
     estimated scf accuracy    <       0.00014894 Ry

     iteration # 54     ecut=    30.00 Ry     beta= 0.40
     Davidson diagonalization with overlap
     ethr =  1.45E-09,  avg # of iterations = 10.0

     negative rho (up, down):  5.302E-01 0.000E+00

     total cpu time spent up to now is      364.4 secs

     total energy              =   -6276.72062521 Ry
     estimated scf accuracy    <       0.00126674 Ry

     iteration # 55     ecut=    30.00 Ry     beta= 0.40
     Davidson diagonalization with overlap
     ethr =  1.45E-09,  avg # of iterations = 10.0

     negative rho (up, down):  5.305E-01 0.000E+00

     total cpu time spent up to now is      372.2 secs

     total energy              =   -6276.72071559 Ry
     estimated scf accuracy    <       0.00023498 Ry

     iteration # 56     ecut=    30.00 Ry     beta= 0.40
     Davidson diagonalization with overlap
     ethr =  1.45E-09,  avg # of iterations =  6.0

     negative rho (up, down):  5.309E-01 0.000E+00

     total cpu time spent up to now is      379.0 secs

     total energy              =   -6276.72073471 Ry
     estimated scf accuracy    <       0.00006246 Ry

     iteration # 57     ecut=    30.00 Ry     beta= 0.40
     Davidson diagonalization with overlap
     ethr =  1.45E-09,  avg # of iterations =  6.0

     negative rho (up, down):  5.315E-01 0.000E+00

     total cpu time spent up to now is      385.8 secs

     total energy              =   -6276.72072075 Ry
     estimated scf accuracy    <       0.00025377 Ry

     iteration # 58     ecut=    30.00 Ry     beta= 0.40
     Davidson diagonalization with overlap
     ethr =  1.45E-09,  avg # of iterations =  7.0

     negative rho (up, down):  5.319E-01 0.000E+00

     total cpu time spent up to now is      392.9 secs

     total energy              =   -6276.72074974 Ry
     estimated scf accuracy    <       0.00037793 Ry

     iteration # 59     ecut=    30.00 Ry     beta= 0.40
     Davidson diagonalization with overlap
     ethr =  1.45E-09,  avg # of iterations =  7.0

     negative rho (up, down):  5.323E-01 0.000E+00

     total cpu time spent up to now is      399.9 secs

     total energy              =   -6276.72078259 Ry
     estimated scf accuracy    <       0.00010044 Ry

     iteration # 60     ecut=    30.00 Ry     beta= 0.40
     Davidson diagonalization with overlap
     ethr =  1.45E-09,  avg # of iterations =  6.0

     negative rho (up, down):  5.327E-01 0.000E+00

     total cpu time spent up to now is      406.6 secs

     total energy              =   -6276.72080176 Ry
     estimated scf accuracy    <       0.00004432 Ry

     iteration # 61     ecut=    30.00 Ry     beta= 0.40
     Davidson diagonalization with overlap
     ethr =  1.45E-09,  avg # of iterations =  3.0
     Minimization algorithm failed to find Fermi energy: reverting to bisection
     Possible cause: smearing is larger than the electronic band-gap.

     negative rho (up, down):  5.333E-01 0.000E+00

     total cpu time spent up to now is      413.0 secs

     total energy              =   -6276.72077115 Ry
     estimated scf accuracy    <       0.00002864 Ry

     iteration # 62     ecut=    30.00 Ry     beta= 0.40
     Davidson diagonalization with overlap
     ethr =  1.45E-09,  avg # of iterations =  6.0

     negative rho (up, down):  5.337E-01 0.000E+00

     total cpu time spent up to now is      419.7 secs

     total energy              =   -6276.72078637 Ry
     estimated scf accuracy    <       0.00002914 Ry

     iteration # 63     ecut=    30.00 Ry     beta= 0.40
     Davidson diagonalization with overlap
     ethr =  1.45E-09,  avg # of iterations =  7.0
     Minimization algorithm failed to find Fermi energy: reverting to bisection
     Possible cause: smearing is larger than the electronic band-gap.

     negative rho (up, down):  5.342E-01 0.000E+00

     total cpu time spent up to now is      426.7 secs

     total energy              =   -6276.72077026 Ry
     estimated scf accuracy    <       0.00019606 Ry

     iteration # 64     ecut=    30.00 Ry     beta= 0.40
     Davidson diagonalization with overlap
     ethr =  1.45E-09,  avg # of iterations =  7.0

     negative rho (up, down):  5.346E-01 0.000E+00

     total cpu time spent up to now is      433.9 secs

     total energy              =   -6276.72079458 Ry
     estimated scf accuracy    <       0.00008686 Ry

     iteration # 65     ecut=    30.00 Ry     beta= 0.40
     Davidson diagonalization with overlap
     ethr =  1.45E-09,  avg # of iterations =  7.0

     negative rho (up, down):  5.350E-01 0.000E+00

     total cpu time spent up to now is      441.0 secs

     total energy              =   -6276.72080625 Ry
     estimated scf accuracy    <       0.00060804 Ry

     iteration # 66     ecut=    30.00 Ry     beta= 0.40
     Davidson diagonalization with overlap
     ethr =  1.45E-09,  avg # of iterations =  9.0

     negative rho (up, down):  5.354E-01 0.000E+00

     total cpu time spent up to now is      448.3 secs

     total energy              =   -6276.72082146 Ry
     estimated scf accuracy    <       0.00048227 Ry

     iteration # 67     ecut=    30.00 Ry     beta= 0.40
     Davidson diagonalization with overlap
     ethr =  1.45E-09,  avg # of iterations =  6.0

     negative rho (up, down):  5.358E-01 0.000E+00

     total cpu time spent up to now is      455.1 secs

     total energy              =   -6276.72084939 Ry
     estimated scf accuracy    <       0.00008130 Ry

     iteration # 68     ecut=    30.00 Ry     beta= 0.40
     Davidson diagonalization with overlap
     ethr =  1.45E-09,  avg # of iterations =  6.0
     Minimization algorithm failed to find Fermi energy: reverting to bisection
     Possible cause: smearing is larger than the electronic band-gap.

     negative rho (up, down):  5.362E-01 0.000E+00

     total cpu time spent up to now is      461.7 secs

     total energy              =   -6276.72086867 Ry
     estimated scf accuracy    <       0.00007810 Ry

     iteration # 69     ecut=    30.00 Ry     beta= 0.40
     Davidson diagonalization with overlap
     ethr =  1.45E-09,  avg # of iterations =  6.0

     negative rho (up, down):  5.368E-01 0.000E+00

     total cpu time spent up to now is      468.3 secs

     total energy              =   -6276.72082105 Ry
     estimated scf accuracy    <       0.00009075 Ry

     iteration # 70     ecut=    30.00 Ry     beta= 0.40
     Davidson diagonalization with overlap
     ethr =  1.45E-09,  avg # of iterations =  6.0

     negative rho (up, down):  5.380E-01 0.000E+00

     total cpu time spent up to now is      474.9 secs

     total energy              =   -6276.72058598 Ry
     estimated scf accuracy    <       0.00016983 Ry

     iteration # 71     ecut=    30.00 Ry     beta= 0.40
     Davidson diagonalization with overlap
     ethr =  1.45E-09,  avg # of iterations =  6.0

     negative rho (up, down):  5.376E-01 0.000E+00

     total cpu time spent up to now is      481.6 secs

     total energy              =   -6276.72083740 Ry
     estimated scf accuracy    <       0.00012925 Ry

     iteration # 72     ecut=    30.00 Ry     beta= 0.40
     Davidson diagonalization with overlap
     ethr =  1.45E-09,  avg # of iterations =  6.0

     negative rho (up, down):  5.379E-01 0.000E+00

     total cpu time spent up to now is      488.7 secs

     total energy              =   -6276.72085709 Ry
     estimated scf accuracy    <       0.00037275 Ry

     iteration # 73     ecut=    30.00 Ry     beta= 0.40
     Davidson diagonalization with overlap
     ethr =  1.45E-09,  avg # of iterations =  9.0

     negative rho (up, down):  5.383E-01 0.000E+00

     total cpu time spent up to now is      496.2 secs

     total energy              =   -6276.72087011 Ry
     estimated scf accuracy    <       0.00050003 Ry

     iteration # 74     ecut=    30.00 Ry     beta= 0.40
     Davidson diagonalization with overlap
     ethr =  1.45E-09,  avg # of iterations =  7.0

     negative rho (up, down):  5.387E-01 0.000E+00

     total cpu time spent up to now is      503.3 secs

     total energy              =   -6276.72090840 Ry
     estimated scf accuracy    <       0.00014535 Ry

     iteration # 75     ecut=    30.00 Ry     beta= 0.40
     Davidson diagonalization with overlap
     ethr =  1.45E-09,  avg # of iterations =  6.0

     negative rho (up, down):  5.389E-01 0.000E+00

     total cpu time spent up to now is      509.9 secs

     total energy              =   -6276.72096147 Ry
     estimated scf accuracy    <       0.00008728 Ry

     iteration # 76     ecut=    30.00 Ry     beta= 0.40
     Davidson diagonalization with overlap
     ethr =  1.45E-09,  avg # of iterations =  6.0

     negative rho (up, down):  5.393E-01 0.000E+00

     total cpu time spent up to now is      516.6 secs

     total energy              =   -6276.72096954 Ry
     estimated scf accuracy    <       0.00006667 Ry

     iteration # 77     ecut=    30.00 Ry     beta= 0.40
     Davidson diagonalization with overlap
     ethr =  1.45E-09,  avg # of iterations =  6.0
     Minimization algorithm failed to find Fermi energy: reverting to bisection
     Possible cause: smearing is larger than the electronic band-gap.

     negative rho (up, down):  5.398E-01 0.000E+00

     total cpu time spent up to now is      523.2 secs

     total energy              =   -6276.72097068 Ry
     estimated scf accuracy    <       0.00023354 Ry

     iteration # 78     ecut=    30.00 Ry     beta= 0.40
     Davidson diagonalization with overlap
     ethr =  1.45E-09,  avg # of iterations =  7.0

     negative rho (up, down):  5.402E-01 0.000E+00

     total cpu time spent up to now is      530.1 secs

     total energy              =   -6276.72097256 Ry
     estimated scf accuracy    <       0.00022398 Ry

     iteration # 79     ecut=    30.00 Ry     beta= 0.40
     Davidson diagonalization with overlap
     ethr =  1.45E-09,  avg # of iterations =  6.0

     negative rho (up, down):  5.405E-01 0.000E+00

     total cpu time spent up to now is      536.8 secs

     total energy              =   -6276.72098616 Ry
     estimated scf accuracy    <       0.00018388 Ry

     iteration # 80     ecut=    30.00 Ry     beta= 0.40
     Davidson diagonalization with overlap
     ethr =  1.45E-09,  avg # of iterations =  6.0

     negative rho (up, down):  5.410E-01 0.000E+00

     total cpu time spent up to now is      543.4 secs

     total energy              =   -6276.72098294 Ry
     estimated scf accuracy    <       0.00003416 Ry

     iteration # 81     ecut=    30.00 Ry     beta= 0.40
     Davidson diagonalization with overlap
     ethr =  1.45E-09,  avg # of iterations =  6.0
     Minimization algorithm failed to find Fermi energy: reverting to bisection
     Possible cause: smearing is larger than the electronic band-gap.

     negative rho (up, down):  5.413E-01 0.000E+00

     total cpu time spent up to now is      550.0 secs

     total energy              =   -6276.72099162 Ry
     estimated scf accuracy    <       0.00001485 Ry

     iteration # 82     ecut=    30.00 Ry     beta= 0.40
     Davidson diagonalization with overlap
     ethr =  1.45E-09,  avg # of iterations =  3.0

     negative rho (up, down):  5.417E-01 0.000E+00

     total cpu time spent up to now is      556.3 secs

     total energy              =   -6276.72099919 Ry
     estimated scf accuracy    <       0.00003104 Ry

     iteration # 83     ecut=    30.00 Ry     beta= 0.40
     Davidson diagonalization with overlap
     ethr =  1.45E-09,  avg # of iterations =  5.0

     negative rho (up, down):  5.421E-01 0.000E+00

     total cpu time spent up to now is      562.8 secs

     total energy              =   -6276.72100274 Ry
     estimated scf accuracy    <       0.00006305 Ry

     iteration # 84     ecut=    30.00 Ry     beta= 0.40
     Davidson diagonalization with overlap
     ethr =  1.45E-09,  avg # of iterations =  3.0

     negative rho (up, down):  5.424E-01 0.000E+00

     total cpu time spent up to now is      569.1 secs

     total energy              =   -6276.72100142 Ry
     estimated scf accuracy    <       0.00000847 Ry

     iteration # 85     ecut=    30.00 Ry     beta= 0.40
     Davidson diagonalization with overlap
     ethr =  1.24E-09,  avg # of iterations =  3.0

     negative rho (up, down):  5.428E-01 0.000E+00

     total cpu time spent up to now is      575.4 secs

     total energy              =   -6276.72100719 Ry
     estimated scf accuracy    <       0.00001319 Ry

     iteration # 86     ecut=    30.00 Ry     beta= 0.40
     Davidson diagonalization with overlap
     ethr =  1.24E-09,  avg # of iterations =  6.0

     negative rho (up, down):  5.431E-01 0.000E+00

     total cpu time spent up to now is      581.9 secs

     total energy              =   -6276.72100750 Ry
     estimated scf accuracy    <       0.00006118 Ry

     iteration # 87     ecut=    30.00 Ry     beta= 0.40
     Davidson diagonalization with overlap
     ethr =  1.24E-09,  avg # of iterations =  3.0

     negative rho (up, down):  5.434E-01 0.000E+00

     total cpu time spent up to now is      588.2 secs

     total energy              =   -6276.72100973 Ry
     estimated scf accuracy    <       0.00003154 Ry

     iteration # 88     ecut=    30.00 Ry     beta= 0.40
     Davidson diagonalization with overlap
     ethr =  1.24E-09,  avg # of iterations =  6.0

     negative rho (up, down):  5.438E-01 0.000E+00

     total cpu time spent up to now is      594.8 secs

     total energy              =   -6276.72100485 Ry
     estimated scf accuracy    <       0.00009358 Ry

     iteration # 89     ecut=    30.00 Ry     beta= 0.40
     Davidson diagonalization with overlap
     ethr =  1.24E-09,  avg # of iterations =  6.0

     negative rho (up, down):  5.441E-01 0.000E+00

     total cpu time spent up to now is      601.3 secs

     total energy              =   -6276.72100470 Ry
     estimated scf accuracy    <       0.00010937 Ry

     iteration # 90     ecut=    30.00 Ry     beta= 0.40
     Davidson diagonalization with overlap
     ethr =  1.24E-09,  avg # of iterations =  6.0

     negative rho (up, down):  5.444E-01 0.000E+00

     total cpu time spent up to now is      608.0 secs

     total energy              =   -6276.72100352 Ry
     estimated scf accuracy    <       0.00020393 Ry

     iteration # 91     ecut=    30.00 Ry     beta= 0.40
     Davidson diagonalization with overlap
     ethr =  1.24E-09,  avg # of iterations =  6.0

     negative rho (up, down):  5.447E-01 0.000E+00

     total cpu time spent up to now is      614.7 secs

     total energy              =   -6276.72100338 Ry
     estimated scf accuracy    <       0.00000804 Ry

     iteration # 92     ecut=    30.00 Ry     beta= 0.40
     Davidson diagonalization with overlap
     ethr =  1.18E-09,  avg # of iterations =  2.0

     negative rho (up, down):  5.451E-01 0.000E+00

     total cpu time spent up to now is      620.9 secs

     total energy              =   -6276.72100107 Ry
     estimated scf accuracy    <       0.00001240 Ry

     iteration # 93     ecut=    30.00 Ry     beta= 0.40
     Davidson diagonalization with overlap
     ethr =  1.18E-09,  avg # of iterations =  3.0

     negative rho (up, down):  5.453E-01 0.000E+00

     total cpu time spent up to now is      627.2 secs

     total energy              =   -6276.72100428 Ry
     estimated scf accuracy    <       0.00004111 Ry

     iteration # 94     ecut=    30.00 Ry     beta= 0.40
     Davidson diagonalization with overlap
     ethr =  1.18E-09,  avg # of iterations =  6.0

     negative rho (up, down):  5.456E-01 0.000E+00

     total cpu time spent up to now is      633.8 secs

     total energy              =   -6276.72102235 Ry
     estimated scf accuracy    <       0.00005688 Ry

     iteration # 95     ecut=    30.00 Ry     beta= 0.40
     Davidson diagonalization with overlap
     ethr =  1.18E-09,  avg # of iterations =  6.0

     negative rho (up, down):  5.459E-01 0.000E+00

     total cpu time spent up to now is      640.4 secs

     total energy              =   -6276.72102141 Ry
     estimated scf accuracy    <       0.00010112 Ry

     iteration # 96     ecut=    30.00 Ry     beta= 0.40
     Davidson diagonalization with overlap
     ethr =  1.18E-09,  avg # of iterations =  6.0

     negative rho (up, down):  5.461E-01 0.000E+00

     total cpu time spent up to now is      646.8 secs

     total energy              =   -6276.72102596 Ry
     estimated scf accuracy    <       0.00002765 Ry

     iteration # 97     ecut=    30.00 Ry     beta= 0.40
     Davidson diagonalization with overlap
     ethr =  1.18E-09,  avg # of iterations =  3.0

     negative rho (up, down):  5.464E-01 0.000E+00

     total cpu time spent up to now is      653.1 secs

     total energy              =   -6276.72103843 Ry
     estimated scf accuracy    <       0.00002386 Ry

     iteration # 98     ecut=    30.00 Ry     beta= 0.40
     Davidson diagonalization with overlap
     ethr =  1.18E-09,  avg # of iterations =  3.0

     negative rho (up, down):  5.466E-01 0.000E+00

     total cpu time spent up to now is      659.4 secs

     total energy              =   -6276.72105925 Ry
     estimated scf accuracy    <       0.00002628 Ry

     iteration # 99     ecut=    30.00 Ry     beta= 0.40
     Davidson diagonalization with overlap
     ethr =  1.18E-09,  avg # of iterations =  5.0

     negative rho (up, down):  5.468E-01 0.000E+00

     total cpu time spent up to now is      665.9 secs

     total energy              =   -6276.72105950 Ry
     estimated scf accuracy    <       0.00001528 Ry

     iteration #100     ecut=    30.00 Ry     beta= 0.40
     Davidson diagonalization with overlap
     ethr =  1.18E-09,  avg # of iterations =  3.0

     negative rho (up, down):  5.471E-01 0.000E+00

     total cpu time spent up to now is      672.2 secs

     total energy              =   -6276.72105469 Ry
     estimated scf accuracy    <       0.00002071 Ry

     iteration #101     ecut=    30.00 Ry     beta= 0.40
     Davidson diagonalization with overlap
     ethr =  1.18E-09,  avg # of iterations =  7.0

     negative rho (up, down):  5.474E-01 0.000E+00

     total cpu time spent up to now is      679.1 secs

     total energy              =   -6276.72105474 Ry
     estimated scf accuracy    <       0.00019987 Ry

     iteration #102     ecut=    30.00 Ry     beta= 0.40
     Davidson diagonalization with overlap
     ethr =  1.18E-09,  avg # of iterations =  6.0

     negative rho (up, down):  5.476E-01 0.000E+00

     total cpu time spent up to now is      685.9 secs

     total energy              =   -6276.72106442 Ry
     estimated scf accuracy    <       0.00000932 Ry

     iteration #103     ecut=    30.00 Ry     beta= 0.40
     Davidson diagonalization with overlap
     ethr =  1.18E-09,  avg # of iterations =  2.0

     negative rho (up, down):  5.479E-01 0.000E+00

     total cpu time spent up to now is      692.1 secs

     total energy              =   -6276.72106810 Ry
     estimated scf accuracy    <       0.00000737 Ry

     iteration #104     ecut=    30.00 Ry     beta= 0.40
     Davidson diagonalization with overlap
     ethr =  1.08E-09,  avg # of iterations =  3.0

     negative rho (up, down):  5.481E-01 0.000E+00

     total cpu time spent up to now is      698.3 secs

     total energy              =   -6276.72106961 Ry
     estimated scf accuracy    <       0.00000673 Ry

     iteration #105     ecut=    30.00 Ry     beta= 0.40
     Davidson diagonalization with overlap
     ethr =  9.88E-10,  avg # of iterations =  3.0

     negative rho (up, down):  5.484E-01 0.000E+00

     total cpu time spent up to now is      704.5 secs

     total energy              =   -6276.72107147 Ry
     estimated scf accuracy    <       0.00000070 Ry

     iteration #106     ecut=    30.00 Ry     beta= 0.40
     Davidson diagonalization with overlap
     ethr =  1.03E-10,  avg # of iterations =  6.0

     negative rho (up, down):  5.486E-01 0.000E+00

     total cpu time spent up to now is      711.4 secs

     total energy              =   -6276.72107218 Ry
     estimated scf accuracy    <       0.00000556 Ry

     iteration #107     ecut=    30.00 Ry     beta= 0.40
     Davidson diagonalization with overlap
     ethr =  1.03E-10,  avg # of iterations =  6.0

     negative rho (up, down):  5.489E-01 0.000E+00

     total cpu time spent up to now is      718.0 secs

     total energy              =   -6276.72107388 Ry
     estimated scf accuracy    <       0.00000922 Ry

     iteration #108     ecut=    30.00 Ry     beta= 0.40
     Davidson diagonalization with overlap
     ethr =  1.03E-10,  avg # of iterations =  6.0

     negative rho (up, down):  5.491E-01 0.000E+00

     total cpu time spent up to now is      724.7 secs

     total energy              =   -6276.72107570 Ry
     estimated scf accuracy    <       0.00000207 Ry

     iteration #109     ecut=    30.00 Ry     beta= 0.40
     Davidson diagonalization with overlap
     ethr =  1.03E-10,  avg # of iterations =  5.0

     negative rho (up, down):  5.493E-01 0.000E+00

     total cpu time spent up to now is      731.3 secs

     total energy              =   -6276.72107619 Ry
     estimated scf accuracy    <       0.00000082 Ry

     iteration #110     ecut=    30.00 Ry     beta= 0.40
     Davidson diagonalization with overlap
     ethr =  1.03E-10,  avg # of iterations =  6.0

     negative rho (up, down):  5.495E-01 0.000E+00

     total cpu time spent up to now is      737.9 secs

     total energy              =   -6276.72107676 Ry
     estimated scf accuracy    <       0.00000096 Ry

     iteration #111     ecut=    30.00 Ry     beta= 0.40
     Davidson diagonalization with overlap
     ethr =  1.03E-10,  avg # of iterations =  6.0

     negative rho (up, down):  5.498E-01 0.000E+00

     total cpu time spent up to now is      744.4 secs

     total energy              =   -6276.72107508 Ry
     estimated scf accuracy    <       0.00000223 Ry

     iteration #112     ecut=    30.00 Ry     beta= 0.40
     Davidson diagonalization with overlap
     ethr =  1.03E-10,  avg # of iterations =  6.0

     negative rho (up, down):  5.500E-01 0.000E+00

     total cpu time spent up to now is      751.2 secs

     total energy              =   -6276.72107198 Ry
     estimated scf accuracy    <       0.00000273 Ry

     iteration #113     ecut=    30.00 Ry     beta= 0.40
     Davidson diagonalization with overlap
     ethr =  1.03E-10,  avg # of iterations =  6.0

     negative rho (up, down):  5.502E-01 0.000E+00

     total cpu time spent up to now is      757.8 secs

     total energy              =   -6276.72106847 Ry
     estimated scf accuracy    <       0.00000735 Ry

     iteration #114     ecut=    30.00 Ry     beta= 0.40
     Davidson diagonalization with overlap
     ethr =  1.03E-10,  avg # of iterations =  6.0

     negative rho (up, down):  5.504E-01 0.000E+00

     total cpu time spent up to now is      764.4 secs

     total energy              =   -6276.72107577 Ry
     estimated scf accuracy    <       0.00000526 Ry

     iteration #115     ecut=    30.00 Ry     beta= 0.40
     Davidson diagonalization with overlap
     ethr =  1.03E-10,  avg # of iterations =  6.0

     negative rho (up, down):  5.506E-01 0.000E+00

     total cpu time spent up to now is      771.5 secs

     total energy              =   -6276.72107488 Ry
     estimated scf accuracy    <       0.00002768 Ry

     iteration #116     ecut=    30.00 Ry     beta= 0.40
     Davidson diagonalization with overlap
     ethr =  1.03E-10,  avg # of iterations =  6.0

     negative rho (up, down):  5.508E-01 0.000E+00

     total cpu time spent up to now is      778.3 secs

     total energy              =   -6276.72107692 Ry
     estimated scf accuracy    <       0.00000463 Ry

     iteration #117     ecut=    30.00 Ry     beta= 0.40
     Davidson diagonalization with overlap
     ethr =  1.03E-10,  avg # of iterations =  4.0

     negative rho (up, down):  5.510E-01 0.000E+00

     total cpu time spent up to now is      784.8 secs

     total energy              =   -6276.72107735 Ry
     estimated scf accuracy    <       0.00000369 Ry

     iteration #118     ecut=    30.00 Ry     beta= 0.40
     Davidson diagonalization with overlap
     ethr =  1.03E-10,  avg # of iterations =  6.0

     negative rho (up, down):  5.511E-01 0.000E+00

     total cpu time spent up to now is      791.4 secs

     total energy              =   -6276.72107948 Ry
     estimated scf accuracy    <       0.00000338 Ry

     iteration #119     ecut=    30.00 Ry     beta= 0.40
     Davidson diagonalization with overlap
     ethr =  1.03E-10,  avg # of iterations =  5.0

     negative rho (up, down):  5.513E-01 0.000E+00

     total cpu time spent up to now is      798.0 secs

     total energy              =   -6276.72108364 Ry
     estimated scf accuracy    <       0.00000387 Ry

     iteration #120     ecut=    30.00 Ry     beta= 0.40
     Davidson diagonalization with overlap
     ethr =  1.03E-10,  avg # of iterations =  6.0

     negative rho (up, down):  5.514E-01 0.000E+00

     total cpu time spent up to now is      804.9 secs

     total energy              =   -6276.72108372 Ry
     estimated scf accuracy    <       0.00002090 Ry

     iteration #121     ecut=    30.00 Ry     beta= 0.40
     Davidson diagonalization with overlap
     ethr =  1.03E-10,  avg # of iterations =  7.0

     negative rho (up, down):  5.516E-01 0.000E+00

     total cpu time spent up to now is      811.8 secs

     total energy              =   -6276.72108426 Ry
     estimated scf accuracy    <       0.00000305 Ry

     iteration #122     ecut=    30.00 Ry     beta= 0.40
     Davidson diagonalization with overlap
     ethr =  1.03E-10,  avg # of iterations =  9.0

     negative rho (up, down):  5.518E-01 0.000E+00

     total cpu time spent up to now is      819.0 secs

     total energy              =   -6276.72108317 Ry
     estimated scf accuracy    <       0.00004773 Ry

     iteration #123     ecut=    30.00 Ry     beta= 0.40
     Davidson diagonalization with overlap
     ethr =  1.03E-10,  avg # of iterations =  6.0

     negative rho (up, down):  5.519E-01 0.000E+00

     total cpu time spent up to now is      826.0 secs

     total energy              =   -6276.72108400 Ry
     estimated scf accuracy    <       0.00000683 Ry

     iteration #124     ecut=    30.00 Ry     beta= 0.40
     Davidson diagonalization with overlap
     ethr =  1.03E-10,  avg # of iterations =  6.0

     negative rho (up, down):  5.521E-01 0.000E+00

     total cpu time spent up to now is      832.9 secs

     total energy              =   -6276.72108505 Ry
     estimated scf accuracy    <       0.00001370 Ry

     iteration #125     ecut=    30.00 Ry     beta= 0.40
     Davidson diagonalization with overlap
     ethr =  1.03E-10,  avg # of iterations =  6.0

     negative rho (up, down):  5.522E-01 0.000E+00

     total cpu time spent up to now is      839.6 secs

     total energy              =   -6276.72108609 Ry
     estimated scf accuracy    <       0.00000875 Ry

     iteration #126     ecut=    30.00 Ry     beta= 0.40
     Davidson diagonalization with overlap
     ethr =  1.03E-10,  avg # of iterations =  6.0

     negative rho (up, down):  5.524E-01 0.000E+00

     total cpu time spent up to now is      846.2 secs

     total energy              =   -6276.72108669 Ry
     estimated scf accuracy    <       0.00000194 Ry

     iteration #127     ecut=    30.00 Ry     beta= 0.40
     Davidson diagonalization with overlap
     ethr =  1.03E-10,  avg # of iterations =  6.0

     negative rho (up, down):  5.525E-01 0.000E+00

     total cpu time spent up to now is      852.7 secs

     total energy              =   -6276.72108490 Ry
     estimated scf accuracy    <       0.00000283 Ry

     iteration #128     ecut=    30.00 Ry     beta= 0.40
     Davidson diagonalization with overlap
     ethr =  1.03E-10,  avg # of iterations =  5.0

     negative rho (up, down):  5.527E-01 0.000E+00

     total cpu time spent up to now is      859.2 secs

     total energy              =   -6276.72108446 Ry
     estimated scf accuracy    <       0.00000356 Ry

     iteration #129     ecut=    30.00 Ry     beta= 0.40
     Davidson diagonalization with overlap
     ethr =  1.03E-10,  avg # of iterations =  6.0

     negative rho (up, down):  5.528E-01 0.000E+00

     total cpu time spent up to now is      865.7 secs

     total energy              =   -6276.72108422 Ry
     estimated scf accuracy    <       0.00000121 Ry

     iteration #130     ecut=    30.00 Ry     beta= 0.40
     Davidson diagonalization with overlap
     ethr =  1.03E-10,  avg # of iterations =  6.0

     negative rho (up, down):  5.529E-01 0.000E+00

     total cpu time spent up to now is      872.2 secs

     total energy              =   -6276.72108603 Ry
     estimated scf accuracy    <       0.00001267 Ry

     iteration #131     ecut=    30.00 Ry     beta= 0.40
     Davidson diagonalization with overlap
     ethr =  1.03E-10,  avg # of iterations =  6.0

     negative rho (up, down):  5.530E-01 0.000E+00

     total cpu time spent up to now is      878.9 secs

     total energy              =   -6276.72108555 Ry
     estimated scf accuracy    <       0.00000850 Ry

     iteration #132     ecut=    30.00 Ry     beta= 0.40
     Davidson diagonalization with overlap
     ethr =  1.03E-10,  avg # of iterations =  6.0

     negative rho (up, down):  5.532E-01 0.000E+00

     total cpu time spent up to now is      885.6 secs

     total energy              =   -6276.72108591 Ry
     estimated scf accuracy    <       0.00000636 Ry

     iteration #133     ecut=    30.00 Ry     beta= 0.40
     Davidson diagonalization with overlap
     ethr =  1.03E-10,  avg # of iterations =  6.0

     negative rho (up, down):  5.533E-01 0.000E+00

     total cpu time spent up to now is      892.3 secs

     total energy              =   -6276.72108607 Ry
     estimated scf accuracy    <       0.00001167 Ry

     iteration #134     ecut=    30.00 Ry     beta= 0.40
     Davidson diagonalization with overlap
     ethr =  1.03E-10,  avg # of iterations =  6.0

     negative rho (up, down):  5.534E-01 0.000E+00

     total cpu time spent up to now is      898.9 secs

     total energy              =   -6276.72108623 Ry
     estimated scf accuracy    <       0.00000275 Ry

     iteration #135     ecut=    30.00 Ry     beta= 0.40
     Davidson diagonalization with overlap
     ethr =  1.03E-10,  avg # of iterations =  3.0

     negative rho (up, down):  5.535E-01 0.000E+00

     total cpu time spent up to now is      905.2 secs

     total energy              =   -6276.72108478 Ry
     estimated scf accuracy    <       0.00000474 Ry

     iteration #136     ecut=    30.00 Ry     beta= 0.40
     Davidson diagonalization with overlap
     ethr =  1.03E-10,  avg # of iterations =  6.0

     negative rho (up, down):  5.536E-01 0.000E+00

     total cpu time spent up to now is      911.7 secs

     total energy              =   -6276.72108058 Ry
     estimated scf accuracy    <       0.00000750 Ry

     iteration #137     ecut=    30.00 Ry     beta= 0.40
     Davidson diagonalization with overlap
     ethr =  1.03E-10,  avg # of iterations =  9.0

     negative rho (up, down):  5.537E-01 0.000E+00

     total cpu time spent up to now is      918.9 secs

     total energy              =   -6276.72108144 Ry
     estimated scf accuracy    <       0.00003887 Ry

     iteration #138     ecut=    30.00 Ry     beta= 0.40
     Davidson diagonalization with overlap
     ethr =  1.03E-10,  avg # of iterations =  7.0

     negative rho (up, down):  5.538E-01 0.000E+00

     total cpu time spent up to now is      925.8 secs

     total energy              =   -6276.72108522 Ry
     estimated scf accuracy    <       0.00000328 Ry

     iteration #139     ecut=    30.00 Ry     beta= 0.40
     Davidson diagonalization with overlap
     ethr =  1.03E-10,  avg # of iterations =  3.0

     negative rho (up, down):  5.539E-01 0.000E+00

     total cpu time spent up to now is      932.1 secs

     total energy              =   -6276.72108468 Ry
     estimated scf accuracy    <       0.00000478 Ry

     iteration #140     ecut=    30.00 Ry     beta= 0.40
     Davidson diagonalization with overlap
     ethr =  1.03E-10,  avg # of iterations =  3.0

     negative rho (up, down):  5.540E-01 0.000E+00

     total cpu time spent up to now is      938.4 secs

     total energy              =   -6276.72108697 Ry
     estimated scf accuracy    <       0.00000159 Ry

     iteration #141     ecut=    30.00 Ry     beta= 0.40
     Davidson diagonalization with overlap
     ethr =  1.03E-10,  avg # of iterations =  7.0

     negative rho (up, down):  5.541E-01 0.000E+00

     total cpu time spent up to now is      945.2 secs

     total energy              =   -6276.72108716 Ry
     estimated scf accuracy    <       0.00001573 Ry

     iteration #142     ecut=    30.00 Ry     beta= 0.40
     Davidson diagonalization with overlap
     ethr =  1.03E-10,  avg # of iterations =  6.0

     negative rho (up, down):  5.542E-01 0.000E+00

     total cpu time spent up to now is      951.8 secs

     total energy              =   -6276.72108835 Ry
     estimated scf accuracy    <       0.00000369 Ry

     iteration #143     ecut=    30.00 Ry     beta= 0.40
     Davidson diagonalization with overlap
     ethr =  1.03E-10,  avg # of iterations =  6.0

     negative rho (up, down):  5.542E-01 0.000E+00

     total cpu time spent up to now is      958.3 secs

     total energy              =   -6276.72108881 Ry
     estimated scf accuracy    <       0.00000310 Ry

     iteration #144     ecut=    30.00 Ry     beta= 0.40
     Davidson diagonalization with overlap
     ethr =  1.03E-10,  avg # of iterations =  6.0

     negative rho (up, down):  5.543E-01 0.000E+00

     total cpu time spent up to now is      964.9 secs

     total energy              =   -6276.72108894 Ry
     estimated scf accuracy    <       0.00000231 Ry

     iteration #145     ecut=    30.00 Ry     beta= 0.40
     Davidson diagonalization with overlap
     ethr =  1.03E-10,  avg # of iterations =  6.0

     negative rho (up, down):  5.544E-01 0.000E+00

     total cpu time spent up to now is      971.6 secs

     total energy              =   -6276.72108890 Ry
     estimated scf accuracy    <       0.00000413 Ry

     iteration #146     ecut=    30.00 Ry     beta= 0.40
     Davidson diagonalization with overlap
     ethr =  1.03E-10,  avg # of iterations =  6.0

     negative rho (up, down):  5.545E-01 0.000E+00

     total cpu time spent up to now is      978.1 secs

     total energy              =   -6276.72108879 Ry
     estimated scf accuracy    <       0.00000671 Ry

     iteration #147     ecut=    30.00 Ry     beta= 0.40
     Davidson diagonalization with overlap
     ethr =  1.03E-10,  avg # of iterations =  6.0

     negative rho (up, down):  5.546E-01 0.000E+00

     total cpu time spent up to now is      984.7 secs

     total energy              =   -6276.72108872 Ry
     estimated scf accuracy    <       0.00000874 Ry

     iteration #148     ecut=    30.00 Ry     beta= 0.40
     Davidson diagonalization with overlap
     ethr =  1.03E-10,  avg # of iterations =  6.0

     negative rho (up, down):  5.546E-01 0.000E+00

     total cpu time spent up to now is      991.3 secs

     total energy              =   -6276.72108866 Ry
     estimated scf accuracy    <       0.00001014 Ry

     iteration #149     ecut=    30.00 Ry     beta= 0.40
     Davidson diagonalization with overlap
     ethr =  1.03E-10,  avg # of iterations =  5.0

     negative rho (up, down):  5.547E-01 0.000E+00

     total cpu time spent up to now is      997.7 secs

     total energy              =   -6276.72108876 Ry
     estimated scf accuracy    <       0.00000013 Ry

     iteration #150     ecut=    30.00 Ry     beta= 0.40
     Davidson diagonalization with overlap
     ethr =  1.93E-11,  avg # of iterations =  6.0

     negative rho (up, down):  5.548E-01 0.000E+00

     total cpu time spent up to now is     1004.5 secs

     total energy              =   -6276.72108871 Ry
     estimated scf accuracy    <       0.00000043 Ry

     iteration #151     ecut=    30.00 Ry     beta= 0.40
     Davidson diagonalization with overlap
     ethr =  1.93E-11,  avg # of iterations =  6.0

     negative rho (up, down):  5.549E-01 0.000E+00

     total cpu time spent up to now is     1011.1 secs

     total energy              =   -6276.72108854 Ry
     estimated scf accuracy    <       0.00000044 Ry

     iteration #152     ecut=    30.00 Ry     beta= 0.40
     Davidson diagonalization with overlap
     ethr =  1.93E-11,  avg # of iterations =  4.0

     negative rho (up, down):  5.549E-01 0.000E+00

     total cpu time spent up to now is     1017.5 secs

     total energy              =   -6276.72108834 Ry
     estimated scf accuracy    <       0.00000029 Ry

     iteration #153     ecut=    30.00 Ry     beta= 0.40
     Davidson diagonalization with overlap
     ethr =  1.93E-11,  avg # of iterations =  6.0

     negative rho (up, down):  5.550E-01 0.000E+00

     total cpu time spent up to now is     1024.1 secs

     total energy              =   -6276.72108826 Ry
     estimated scf accuracy    <       0.00000057 Ry

     iteration #154     ecut=    30.00 Ry     beta= 0.40
     Davidson diagonalization with overlap
     ethr =  1.93E-11,  avg # of iterations =  6.0

     negative rho (up, down):  5.551E-01 0.000E+00

     total cpu time spent up to now is     1030.7 secs

     total energy              =   -6276.72108793 Ry
     estimated scf accuracy    <       0.00000296 Ry

     iteration #155     ecut=    30.00 Ry     beta= 0.40
     Davidson diagonalization with overlap
     ethr =  1.93E-11,  avg # of iterations =  6.0

     negative rho (up, down):  5.551E-01 0.000E+00

     total cpu time spent up to now is     1037.4 secs

     total energy              =   -6276.72108768 Ry
     estimated scf accuracy    <       0.00000147 Ry

     iteration #156     ecut=    30.00 Ry     beta= 0.40
     Davidson diagonalization with overlap
     ethr =  1.93E-11,  avg # of iterations =  6.0

     negative rho (up, down):  5.552E-01 0.000E+00

     total cpu time spent up to now is     1044.0 secs

     total energy              =   -6276.72108735 Ry
     estimated scf accuracy    <       0.00000092 Ry

     iteration #157     ecut=    30.00 Ry     beta= 0.40
     Davidson diagonalization with overlap
     ethr =  1.93E-11,  avg # of iterations =  6.0

     negative rho (up, down):  5.552E-01 0.000E+00

     total cpu time spent up to now is     1050.7 secs

     total energy              =   -6276.72108694 Ry
     estimated scf accuracy    <       0.00000069 Ry

     iteration #158     ecut=    30.00 Ry     beta= 0.40
     Davidson diagonalization with overlap
     ethr =  1.93E-11,  avg # of iterations =  5.0

     negative rho (up, down):  5.553E-01 0.000E+00

     total cpu time spent up to now is     1057.2 secs

     total energy              =   -6276.72108628 Ry
     estimated scf accuracy    <       0.00000084 Ry

     iteration #159     ecut=    30.00 Ry     beta= 0.40
     Davidson diagonalization with overlap
     ethr =  1.93E-11,  avg # of iterations =  9.0

     negative rho (up, down):  5.554E-01 0.000E+00

     total cpu time spent up to now is     1064.5 secs

     total energy              =   -6276.72108533 Ry
     estimated scf accuracy    <       0.00001103 Ry

     iteration #160     ecut=    30.00 Ry     beta= 0.40
     Davidson diagonalization with overlap
     ethr =  1.93E-11,  avg # of iterations =  7.0

     negative rho (up, down):  5.554E-01 0.000E+00

     total cpu time spent up to now is     1071.6 secs

     total energy              =   -6276.72108506 Ry
     estimated scf accuracy    <       0.00000220 Ry

     iteration #161     ecut=    30.00 Ry     beta= 0.40
     Davidson diagonalization with overlap
     ethr =  1.93E-11,  avg # of iterations =  6.0

     negative rho (up, down):  5.555E-01 0.000E+00

     total cpu time spent up to now is     1078.1 secs

     total energy              =   -6276.72108553 Ry
     estimated scf accuracy    <       0.00000211 Ry

     iteration #162     ecut=    30.00 Ry     beta= 0.40
     Davidson diagonalization with overlap
     ethr =  1.93E-11,  avg # of iterations =  9.0

     negative rho (up, down):  5.555E-01 0.000E+00

     total cpu time spent up to now is     1085.7 secs

     total energy              =   -6276.72108534 Ry
     estimated scf accuracy    <       0.00002109 Ry

     iteration #163     ecut=    30.00 Ry     beta= 0.40
     Davidson diagonalization with overlap
     ethr =  1.93E-11,  avg # of iterations =  9.0

     negative rho (up, down):  5.556E-01 0.000E+00

     total cpu time spent up to now is     1093.4 secs

     total energy              =   -6276.72108563 Ry
     estimated scf accuracy    <       0.00000662 Ry

     iteration #164     ecut=    30.00 Ry     beta= 0.40
     Davidson diagonalization with overlap
     ethr =  1.93E-11,  avg # of iterations =  6.0

     negative rho (up, down):  5.556E-01 0.000E+00

     total cpu time spent up to now is     1100.5 secs

     total energy              =   -6276.72108555 Ry
     estimated scf accuracy    <       0.00000304 Ry

     iteration #165     ecut=    30.00 Ry     beta= 0.40
     Davidson diagonalization with overlap
     ethr =  1.93E-11,  avg # of iterations =  6.0

     negative rho (up, down):  5.556E-01 0.000E+00

     total cpu time spent up to now is     1107.1 secs

     total energy              =   -6276.72108541 Ry
     estimated scf accuracy    <       0.00000236 Ry

     iteration #166     ecut=    30.00 Ry     beta= 0.40
     Davidson diagonalization with overlap
     ethr =  1.93E-11,  avg # of iterations =  6.0

     negative rho (up, down):  5.557E-01 0.000E+00

     total cpu time spent up to now is     1113.7 secs

     total energy              =   -6276.72108482 Ry
     estimated scf accuracy    <       0.00000239 Ry

     iteration #167     ecut=    30.00 Ry     beta= 0.40
     Davidson diagonalization with overlap
     ethr =  1.93E-11,  avg # of iterations =  9.0

     negative rho (up, down):  5.557E-01 0.000E+00

     total cpu time spent up to now is     1121.1 secs

     total energy              =   -6276.72108530 Ry
     estimated scf accuracy    <       0.00001771 Ry

     iteration #168     ecut=    30.00 Ry     beta= 0.40
     Davidson diagonalization with overlap
     ethr =  1.93E-11,  avg # of iterations = 11.0

     negative rho (up, down):  5.558E-01 0.000E+00

     total cpu time spent up to now is     1129.2 secs

     total energy              =   -6276.72108514 Ry
     estimated scf accuracy    <       0.00002426 Ry

     iteration #169     ecut=    30.00 Ry     beta= 0.40
     Davidson diagonalization with overlap
     ethr =  1.93E-11,  avg # of iterations = 10.0

     negative rho (up, down):  5.558E-01 0.000E+00

     total cpu time spent up to now is     1137.2 secs

     total energy              =   -6276.72108584 Ry
     estimated scf accuracy    <       0.00001255 Ry

     iteration #170     ecut=    30.00 Ry     beta= 0.40
     Davidson diagonalization with overlap
     ethr =  1.93E-11,  avg # of iterations =  7.0

     negative rho (up, down):  5.558E-01 0.000E+00

     total cpu time spent up to now is     1144.3 secs

     total energy              =   -6276.72108584 Ry
     estimated scf accuracy    <       0.00000195 Ry

     iteration #171     ecut=    30.00 Ry     beta= 0.40
     Davidson diagonalization with overlap
     ethr =  1.93E-11,  avg # of iterations =  6.0

     negative rho (up, down):  5.559E-01 0.000E+00

     total cpu time spent up to now is     1150.9 secs

     total energy              =   -6276.72108642 Ry
     estimated scf accuracy    <       0.00000099 Ry

     iteration #172     ecut=    30.00 Ry     beta= 0.40
     Davidson diagonalization with overlap
     ethr =  1.93E-11,  avg # of iterations =  6.0

     negative rho (up, down):  5.559E-01 0.000E+00

     total cpu time spent up to now is     1157.6 secs

     total energy              =   -6276.72108661 Ry
     estimated scf accuracy    <       0.00000195 Ry

     iteration #173     ecut=    30.00 Ry     beta= 0.40
     Davidson diagonalization with overlap
     ethr =  1.93E-11,  avg # of iterations =  6.0

     negative rho (up, down):  5.559E-01 0.000E+00

     total cpu time spent up to now is     1164.4 secs

     total energy              =   -6276.72108713 Ry
     estimated scf accuracy    <       0.00000162 Ry

     iteration #174     ecut=    30.00 Ry     beta= 0.40
     Davidson diagonalization with overlap
     ethr =  1.93E-11,  avg # of iterations =  6.0

     negative rho (up, down):  5.560E-01 0.000E+00

     total cpu time spent up to now is     1171.2 secs

     total energy              =   -6276.72108681 Ry
     estimated scf accuracy    <       0.00000099 Ry

     iteration #175     ecut=    30.00 Ry     beta= 0.40
     Davidson diagonalization with overlap
     ethr =  1.93E-11,  avg # of iterations =  6.0

     negative rho (up, down):  5.560E-01 0.000E+00

     total cpu time spent up to now is     1178.0 secs

     total energy              =   -6276.72108639 Ry
     estimated scf accuracy    <       0.00000413 Ry

     iteration #176     ecut=    30.00 Ry     beta= 0.40
     Davidson diagonalization with overlap
     ethr =  1.93E-11,  avg # of iterations =  6.0

     negative rho (up, down):  5.560E-01 0.000E+00

     total cpu time spent up to now is     1184.8 secs

     total energy              =   -6276.72108690 Ry
     estimated scf accuracy    <       0.00000216 Ry

     iteration #177     ecut=    30.00 Ry     beta= 0.40
     Davidson diagonalization with overlap
     ethr =  1.93E-11,  avg # of iterations =  6.0

     negative rho (up, down):  5.561E-01 0.000E+00

     total cpu time spent up to now is     1191.5 secs

     total energy              =   -6276.72108698 Ry
     estimated scf accuracy    <       0.00000214 Ry

[...]
     ethr =  1.93E-11,  avg # of iterations =  3.0

     negative rho (up, down):  5.562E-01 0.000E+00

     total cpu time spent up to now is     1230.5 secs

     total energy              =   -6276.72108661 Ry
     estimated scf accuracy    <       0.00000015 Ry

     iteration #184     ecut=    30.00 Ry     beta= 0.40
     Davidson diagonalization with overlap
     ethr =  1.93E-11,  avg # of iterations =  3.0

     negative rho (up, down):  5.562E-01 0.000E+00

     total cpu time spent up to now is     1236.7 secs

     total energy              =   -6276.72108649 Ry
     estimated scf accuracy    <       0.00000026 Ry

     iteration #185     ecut=    30.00 Ry     beta= 0.40
     Davidson diagonalization with overlap
     ethr =  1.93E-11,  avg # of iterations =  3.0

     negative rho (up, down):  5.563E-01 0.000E+00

     total cpu time spent up to now is     1242.9 secs

     total energy              =   -6276.72108635 Ry
     estimated scf accuracy    <       0.00000018 Ry

     iteration #186     ecut=    30.00 Ry     beta= 0.40
     Davidson diagonalization with overlap
     ethr =  1.93E-11,  avg # of iterations =  3.0

     negative rho (up, down):  5.563E-01 0.000E+00

     total cpu time spent up to now is     1249.1 secs

     total energy              =   -6276.72108636 Ry
     estimated scf accuracy    <       0.00000040 Ry

     iteration #187     ecut=    30.00 Ry     beta= 0.40
     Davidson diagonalization with overlap
     ethr =  1.93E-11,  avg # of iterations =  3.0

     negative rho (up, down):  5.563E-01 0.000E+00

     total cpu time spent up to now is     1255.3 secs

     total energy              =   -6276.72108642 Ry
     estimated scf accuracy    <       0.00000016 Ry

     iteration #188     ecut=    30.00 Ry     beta= 0.40
     Davidson diagonalization with overlap
     ethr =  1.93E-11,  avg # of iterations =  6.0

     negative rho (up, down):  5.563E-01 0.000E+00

     total cpu time spent up to now is     1261.8 secs

     total energy              =   -6276.72108635 Ry
     estimated scf accuracy    <       0.00000195 Ry

     iteration #189     ecut=    30.00 Ry     beta= 0.40
     Davidson diagonalization with overlap
     ethr =  1.93E-11,  avg # of iterations =  5.0

     negative rho (up, down):  5.563E-01 0.000E+00

     total cpu time spent up to now is     1268.2 secs

     total energy              =   -6276.72108634 Ry
     estimated scf accuracy    <       0.00000038 Ry

     iteration #190     ecut=    30.00 Ry     beta= 0.40
     Davidson diagonalization with overlap
     ethr =  1.93E-11,  avg # of iterations =  3.0

     negative rho (up, down):  5.564E-01 0.000E+00

     total cpu time spent up to now is     1274.4 secs

     total energy              =   -6276.72108628 Ry
     estimated scf accuracy    <       0.00000033 Ry

     iteration #191     ecut=    30.00 Ry     beta= 0.40
     Davidson diagonalization with overlap
     ethr =  1.93E-11,  avg # of iterations =  3.0

     negative rho (up, down):  5.564E-01 0.000E+00

     total cpu time spent up to now is     1280.6 secs

     total energy              =   -6276.72108616 Ry
     estimated scf accuracy    <       0.00000055 Ry

     iteration #192     ecut=    30.00 Ry     beta= 0.40
     Davidson diagonalization with overlap
     ethr =  1.93E-11,  avg # of iterations =  6.0

     negative rho (up, down):  5.564E-01 0.000E+00

     total cpu time spent up to now is     1287.1 secs

     total energy              =   -6276.72108600 Ry
     estimated scf accuracy    <       0.00000039 Ry

     iteration #193     ecut=    30.00 Ry     beta= 0.40
     Davidson diagonalization with overlap
     ethr =  1.93E-11,  avg # of iterations =  6.0

     negative rho (up, down):  5.564E-01 0.000E+00

     total cpu time spent up to now is     1293.6 secs

     total energy              =   -6276.72108604 Ry
     estimated scf accuracy    <       0.00000102 Ry

     iteration #194     ecut=    30.00 Ry     beta= 0.40
     Davidson diagonalization with overlap
     ethr =  1.93E-11,  avg # of iterations =  6.0

     negative rho (up, down):  5.564E-01 0.000E+00

     total cpu time spent up to now is     1300.0 secs

     total energy              =   -6276.72108603 Ry
     estimated scf accuracy    <       0.00000085 Ry

     iteration #195     ecut=    30.00 Ry     beta= 0.40
     Davidson diagonalization with overlap
     ethr =  1.93E-11,  avg # of iterations =  3.0

     negative rho (up, down):  5.565E-01 0.000E+00

     total cpu time spent up to now is     1306.3 secs

     total energy              =   -6276.72108598 Ry
     estimated scf accuracy    <       0.00000011 Ry

     iteration #196     ecut=    30.00 Ry     beta= 0.40
     Davidson diagonalization with overlap
     ethr =  1.58E-11,  avg # of iterations =  3.0

     negative rho (up, down):  5.565E-01 0.000E+00

     total cpu time spent up to now is     1312.5 secs

     total energy              =   -6276.72108588 Ry
     estimated scf accuracy    <       0.00000012 Ry

     iteration #197     ecut=    30.00 Ry     beta= 0.40
     Davidson diagonalization with overlap
     ethr =  1.58E-11,  avg # of iterations =  3.0

     negative rho (up, down):  5.565E-01 0.000E+00

     total cpu time spent up to now is     1318.6 secs

     End of self-consistent calculation

          k = 0.0000 0.0000 0.0000 ( 42465 PWs)   bands (ev):

   -65.5116 -65.5023 -65.5018 -65.4772 -65.4674 -65.4669 -65.4630 -65.4592
   -65.4587 -65.4542 -65.4479 -65.4456 -65.4452 -65.4370 -65.4354 -65.4352
   -65.4307 -65.4236 -65.4192 -65.4187 -65.4108 -65.4102 -65.4074 -65.4069
   -65.4036 -65.3927 -65.3575 -65.3569 -65.3569 -65.2920 -65.2877 -65.2875
   -52.3945 -39.1537 -39.1535 -39.1468 -39.1019 -39.0965 -39.0964 -39.0939
   -39.0601 -39.0595 -39.0551 -39.0502 -39.0498 -39.0376 -39.0373 -39.0167
   -39.0165 -39.0121 -39.0075 -38.9775 -38.9714 -38.9712 -38.9519 -38.9517
   -38.9393 -38.9393 -38.9361 -38.9290 -38.9226 -38.9226 -38.9065 -38.9012
   -38.9009 -38.8992 -38.8769 -38.8766 -38.8757 -38.8708 -38.8703 -38.8701
   -38.8646 -38.8642 -38.8624 -38.8610 -38.8487 -38.8485 -38.8470 -38.8395
   -38.8394 -38.8394 -38.8318 -38.8315 -38.8301 -38.8268 -38.8268 -38.8100
   -38.8080 -38.8066 -38.8065 -38.7966 -38.7872 -38.7869 -38.7828 -38.7792
   -38.7790 -38.7788 -38.7718 -38.7717 -38.7688 -38.7667 -38.7665 -38.7608
   -38.7599 -38.7598 -38.7581 -38.7485 -38.7485 -38.7357 -38.7355 -38.7321
   -38.7269 -38.7268 -38.7200 -38.7178 -38.7176 -38.7043 -38.7001 -38.6979
   -38.6978 -38.6959 -38.6957 -38.6607 -38.6509 -38.6507 -38.6212 -38.5911
   -38.5910 -23.4074 -23.3333 -23.3332 -18.3574 -18.2275 -18.0268 -18.0266
   -18.0153 -18.0150 -17.9806 -17.9614 -17.9612 -17.9442 -17.9192 -17.8843
   -17.8839 -17.8115 -17.7306 -17.7182 -17.7171 -17.7168 -17.7030 -17.7029
   -17.6893 -17.6620 -17.6617 -17.6322 -17.6321 -17.6285 -17.6285 -17.6228
   -17.5813 -17.5808 -17.5413 -16.5688 -11.9179 -11.4906 -11.4707 -11.4705
   -11.4513 -11.4510 -11.4186 -10.6573 -10.6104 -10.6100 -10.5982 -10.5980
   -10.5896 -10.5326 -10.4927 -10.4924  -6.5814  -6.5806  -6.5595  -6.0764
    -5.5272  -5.5269  -5.5231  -5.4887  -5.4875  -5.4870  -5.4530  -5.4434
    -5.4428  -5.4212  -5.4210  -5.3830  -5.1831  -5.1753  -5.1745  -5.1688
    -5.1459  -5.1450  -5.0493  -5.0238  -5.0226  -4.9491  -4.9490  -4.9303
    -4.9302  -4.9137  -4.9033  -4.8595  -4.8591  -4.8466  -4.8352  -4.8049
    -4.8042  -4.6119  -4.6076  -4.6076  -4.5740  -4.5738  -4.5736  -4.5508
    -4.5505  -4.4952  -4.4951  -4.4914  -4.3385  -4.3382  -4.3034  -4.3033
    -4.2662  -4.2236  -4.1601  -4.1547  -4.1535  -4.1238  -4.0989  -4.0986
    -4.0648  -4.0608  -4.0608  -4.0332  -4.0302  -3.9926  -3.9913  -3.9874
    -3.9865  -3.8534  -3.7416  -3.7406  -3.7203  -3.7202  -3.7072  -3.6424
    -3.6418  -3.6382  -3.6038  -3.6001  -3.5997  -3.5813  -3.5651  -3.5642
    -3.5538  -3.5353  -3.5308  -3.5306  -3.5131  -3.5125  -3.4766  -3.4461
    -3.4460  -3.4063  -3.3964  -3.3959  -3.3910  -3.1676  -3.1484  -3.1478
    -3.1213  -3.0890  -3.0882  -3.0309  -3.0308  -2.9568  -2.9562  -2.9254
    -2.9250  -2.8871  -2.7902  -2.6621  -2.6573  -2.6512  -2.6499  -2.6111
    -2.6106  -2.5712  -2.5179  -2.5172  -2.4277  -2.4267  -2.3825  -1.9358
    -1.8961  -1.8957  -1.7965  -1.7964  -1.7707  -1.7146  -1.7139  -1.7138
    -1.6568  -1.6402  -1.6400  -1.4295  -1.3580  -1.3574  -1.3553  -1.3280
    -1.3274  -0.9431  -0.3849  -0.3833  -0.3824  -0.2797  -0.2797  -0.0657
    -0.0498  -0.0495  -0.0365  -0.0360  -0.0027  -0.0021   0.0680   0.5388
     0.5392   0.5711   0.5789   0.6169   0.6174   0.8426   0.8971   0.9385
     0.9728   0.9734   1.0130   1.0132   1.0773   1.0774   1.0872   1.1262
     1.1263   1.1585   1.2603   1.2774   1.2777   1.3066   1.3070   1.3414
     1.4168   1.4170   1.4273   1.4609   1.4610   1.4799   1.4802   1.5064
     1.5217   1.5257   1.5261   1.5693   1.5697   1.6092   1.7689   1.8087
     1.8088   1.8673   1.8675   1.8836   1.8838   1.9005   1.9120   1.9124
     1.9286   1.9638   2.0192   2.0195   2.0485   2.0586   2.0753   2.0760
     2.0869   2.0871   2.1511   2.1586   2.1588   2.1839   2.2026   2.2357
     2.2361   2.2849   2.3112   2.3116   2.3278   2.3524   2.3527   2.4142
     2.4144

     the Fermi energy is     0.6705 ev

!    total energy              =   -6276.72108577 Ry
     estimated scf accuracy    <       0.00000008 Ry
     smearing contrib. (-TS)   =       0.00146312 Ry
     internal energy E=F+TS    =   -6276.72254889 Ry

     The total energy is F=E-TS. E is the sum of the following terms:
     one-electron contribution =  -45081.91984301 Ry
     hartree contribution      =   22574.63677362 Ry
     xc contribution           =    -942.59004009 Ry
     ewald contribution        =   17506.36196505 Ry
     one-center paw contrib.   =    -333.21140445 Ry

     convergence has been achieved in 197 iterations

     negative rho (up, down):  5.565E-01 0.000E+00

     Forces acting on atoms (cartesian axes, Ry/au):

     atom    1 type  1   force =    -0.00765170    0.00441219    0.00150220
     atom    2 type  1   force =     0.00029785    0.00007731   -0.00794560
     atom    3 type  1   force =     0.00766347    0.00443910    0.00152194
     atom    4 type  1   force =     0.01848675   -0.01054543   -0.01441579
     atom    5 type  1   force =     0.00197683   -0.00658408   -0.00165983
     atom    6 type  1   force =    -0.00001601   -0.00000592   -0.00234074
     atom    7 type  1   force =    -0.00004748   -0.00879147    0.00151225
     atom    8 type  1   force =    -0.00000777    0.02119169   -0.01456048
     atom    9 type  1   force =    -0.00472979    0.00501179   -0.00167143
     atom   10 type  1   force =    -0.01857557   -0.01057045   -0.01448476
     atom   11 type  1   force =    -0.00666868    0.00165689   -0.00161349
     atom   12 type  1   force =    -0.00028743    0.00007951   -0.00801356
     atom   13 type  1   force =    -0.00196247   -0.00660088   -0.00164090
     atom   14 type  1   force =     0.00475089    0.00500266   -0.00164271
     atom   15 type  1   force =     0.00001083   -0.00024457   -0.00802672
     atom   16 type  1   force =     0.00666967    0.00164537   -0.00162760
     atom   17 type  3   force =    -0.00013837    0.00014036    0.00901762
     atom   18 type  3   force =    -0.00206336    0.00083653   -0.00954912
     atom   19 type  3   force =    -0.00000206   -0.00100918    0.00949761
     atom   20 type  3   force =     0.00171842    0.00007456   -0.01147356
     atom   21 type  3   force =    -0.00026520   -0.00041614   -0.00954854
     atom   22 type  3   force =     0.00322826   -0.00208258    0.00916695
     atom   23 type  3   force =    -0.00001517    0.00032657   -0.00829833
     atom   24 type  3   force =    -0.00001021    0.00012865   -0.00919865
     atom   25 type  3   force =    -0.01329368    0.00243017   -0.01025582
     atom   26 type  3   force =     0.00057323   -0.00145778   -0.01131030
     atom   27 type  3   force =    -0.00120418    0.00107340   -0.01146912
     atom   28 type  3   force =     0.00001324   -0.00206345   -0.00942582
     atom   29 type  3   force =    -0.00064860    0.00062518    0.00954688
     atom   30 type  3   force =     0.00000581    0.00365958    0.00913512
     atom   31 type  3   force =     0.00871559    0.01028471   -0.01012211
     atom   32 type  3   force =    -0.00169188    0.00004811   -0.01148466
     atom   33 type  3   force =     0.00206552    0.00081905   -0.00956828
     atom   34 type  3   force =    -0.00322043   -0.00211379    0.00919418
     atom   35 type  3   force =     0.00015321    0.00033074   -0.00924128
     atom   36 type  3   force =    -0.00000222   -0.00009216    0.00898762
     atom   37 type  3   force =     0.00454296   -0.01254720   -0.01020192
     atom   38 type  3   force =    -0.00000976    0.00049363   -0.00947855
     atom   39 type  3   force =     0.00025999   -0.00044177   -0.00956744
     atom   40 type  3   force =    -0.00058956   -0.00144285   -0.01133808
     atom   41 type  3   force =     0.01328262    0.00242127   -0.01019950
     atom   42 type  3   force =     0.00115175    0.00107485   -0.01147176
     atom   43 type  3   force =    -0.00456304   -0.01254740   -0.01023026
     atom   44 type  3   force =    -0.00010070    0.00031077   -0.00920276
     atom   45 type  3   force =     0.00015544    0.00013764    0.00900296
     atom   46 type  3   force =     0.00063913    0.00062488    0.00956153
     atom   47 type  3   force =     0.00002978   -0.00010002   -0.16394066
     atom   48 type  3   force =    -0.00867323    0.01025949   -0.01011795
     atom   49 type  4   force =     0.00001701    0.00926963   -0.01817207
     atom   50 type  4   force =    -0.00473312   -0.00936823    0.02748676
     atom   51 type  4   force =     0.00788912   -0.00472023   -0.01815178
     atom   52 type  4   force =     0.05550467    0.03197162    0.03960983
     atom   53 type  4   force =     0.00416062    0.00240518   -0.03060389
     atom   54 type  4   force =    -0.00000897    0.00041411    0.03592581
     atom   55 type  4   force =     0.00029295   -0.00017369    0.03597436
     atom   56 type  4   force =    -0.01044359    0.00053652    0.02733469
     atom   57 type  4   force =    -0.00002637   -0.00002458    0.02905548
     atom   58 type  4   force =     0.00008869    0.00200401    0.03638052
     atom   59 type  4   force =     0.00442916    0.00262423    0.03622505
     atom   60 type  4   force =    -0.05545773    0.03191265    0.03950749
     atom   61 type  4   force =     0.00562171    0.00893553    0.02733816
     atom   62 type  4   force =    -0.00002847   -0.06420165    0.03974400
     atom   63 type  4   force =    -0.00185786   -0.00094757    0.03649380
     atom   64 type  4   force =     0.00403711   -0.00904378   -0.02899167
     atom   65 type  4   force =     0.01047230    0.00053341    0.02734804
     atom   66 type  4   force =    -0.00588754    0.00814431   -0.02902301
     atom   67 type  4   force =     0.00483228   -0.00945195    0.02740399
     atom   68 type  4   force =    -0.00989990    0.00096923   -0.02893126
     atom   69 type  4   force =     0.00592471    0.00817025   -0.02895231
     atom   70 type  4   force =    -0.00571764    0.00890799    0.02738742
     atom   71 type  4   force =    -0.00004742   -0.00513140    0.03630235
     atom   72 type  4   force =    -0.00406101   -0.00905907   -0.02899200
     atom   73 type  4   force =    -0.00434608    0.00256651    0.03627038
     atom   74 type  4   force =    -0.00001173    0.00014916   -0.04262510
     atom   75 type  4   force =     0.00994221    0.00103234   -0.02895109
     atom   76 type  4   force =    -0.00030992   -0.00021771    0.03595470
     atom   77 type  4   force =     0.00000306   -0.00489303   -0.03068660
     atom   78 type  4   force =     0.00179821   -0.00092462    0.03642898
     atom   79 type  4   force =    -0.00406094    0.00241172   -0.03069115
     atom   80 type  4   force =    -0.00803161   -0.00466113   -0.01820467
     atom   81 type  2   force =    -0.00003659   -0.00009927    0.10349606

     Total force =     0.301729     Total SCF correction =     0.001327


     Computing stress (Cartesian axis) and pressure


     negative rho (up, down):  5.565E-01 0.000E+00
          total   stress  (Ry/bohr**3)                   (kbar)     P=     -447.82
  -0.00304665  -0.00000001   0.00000004         -448.18       -0.00        0.01
  -0.00000001  -0.00304671  -0.00000009           -0.00     -448.19       -0.01
   0.00000004  -0.00000009  -0.00303929            0.01       -0.01     -447.09


     Writing all to output data dir /root/qe_scratch/cand201_B_V2CO2_Na.save/ :
     XML data file, charge density, pseudopotentials, collected wavefunctions
 
     init_run     :      9.63s CPU     12.35s WALL (       1 calls)
     electrons    :   1124.09s CPU   1305.57s WALL (       1 calls)
     forces       :      1.61s CPU      1.67s WALL (       1 calls)
     stress       :      2.49s CPU      2.56s WALL (       1 calls)

     Called by init_run:
     wfcinit      :      0.91s CPU      1.24s WALL (       1 calls)
     potinit      :      7.52s CPU      9.43s WALL (       1 calls)
     hinit0       :      0.65s CPU      0.77s WALL (       1 calls)

     Called by electrons:
     c_bands      :    365.54s CPU    366.22s WALL (     197 calls)
     sum_band     :     42.97s CPU     43.17s WALL (     197 calls)
     v_of_rho     :     15.84s CPU     20.77s WALL (     198 calls)
     newd         :     55.90s CPU     56.35s WALL (     198 calls)
                                       56.35s GPU  (     198 calls)
     PAW_pot      :    606.24s CPU    775.43s WALL (     198 calls)
     mix_rho      :     11.64s CPU     12.01s WALL (     197 calls)

     Called by c_bands:
     init_us_2    :      1.06s CPU      1.08s WALL (     395 calls)
     cegterg      :    361.47s CPU    361.97s WALL (     197 calls)

     Called by *egterg:
     cdiaghg      :     43.57s CPU     43.74s WALL (    1308 calls)
                                       43.74s GPU  (    1308 calls)
     h_psi        :    135.81s CPU    136.39s WALL (    1309 calls)
                                      136.33s GPU  (    1309 calls)
     s_psi        :      3.49s CPU      3.50s WALL (    1309 calls)
     g_psi        :      0.01s CPU      0.48s WALL (    1111 calls)
                                        0.47s GPU  (    1111 calls)

     Called by h_psi:
     h_psi:calbec :      0.15s CPU     50.37s WALL (    1309 calls)
                                       50.36s GPU  (    1309 calls)
     vloc_psi     :     44.06s CPU     44.40s WALL (    1309 calls)
                                       44.40s GPU  (    1309 calls)
     add_vuspsi   :      3.64s CPU     41.29s WALL (    1309 calls)
                                       41.29s GPU  (    1309 calls)

     General routines
     calbec       :      0.16s CPU      0.34s WALL (    1511 calls)
     fft          :     17.76s CPU     23.42s WALL (    2597 calls)
                                        0.48s GPU  (    2399 calls)
     ffts         :      7.48s CPU      9.22s WALL (     395 calls)
                                        0.03s GPU  (     197 calls)
     fftw         :      0.45s CPU     43.62s WALL (   32452 calls)
                                       43.47s GPU  (   32452 calls)
     interpolate  :     26.74s CPU     33.78s WALL (     198 calls)
 
     Parallel routines
 
     PWSCF        :  18m58.69s CPU  22m 3.34s WALL

 
   This run was terminated on:   2:27:39   7May2026            

=------------------------------------------------------------------------------=
   JOB DONE.
=------------------------------------------------------------------------------=
Warning: ieee_invalid is signaling
Warning: ieee_divide_by_zero is signaling
Warning: ieee_underflow is signaling
Warning: ieee_inexact is signaling
FORTRAN STOP
