--------------------------------------------------------------------------
WARNING: Open MPI tried to bind a process but failed.  This is a
warning only; your job will continue, though performance may
be degraded.

  Local host:        3253031b5b37
  Application name:  /root/qe-7.3.1/bin/pw.x
  Error message:     failed to bind memory
  Location:          ../../../../../orte/mca/rtc/hwloc/rtc_hwloc.c:447

--------------------------------------------------------------------------

     Program PWSCF v.7.3.1 starts on  7May2026 at  3:11: 7 

     This program is part of the open-source Quantum ESPRESSO suite
     for quantum simulation of materials; please cite
         "P. Giannozzi et al., J. Phys.:Condens. Matter 21 395502 (2009);
         "P. Giannozzi et al., J. Phys.:Condens. Matter 29 465901 (2017);
         "P. Giannozzi et al., J. Chem. Phys. 152 154105 (2020);
          URL http://www.quantum-espresso.org", 
     in publications or presentations arising from this work. More details at
     http://www.quantum-espresso.org/quote

     Parallel version (MPI & OpenMP), running on       8 processor cores
     Number of MPI processes:                 1
     Threads/MPI process:                     8

     MPI processes distributed on     1 nodes
     90595 MiB available memory on the printing compute node when the environment starts
 
     Reading input from cand256_B_NiSe2_Bi.in

     Current dimensions of program PWSCF are:
     Max number of different atomic species (ntypx) = 10
     Max number of k-points (npk) =  40000
     Max angular momentum in pseudopotentials (lmaxx) =  4
     file Bi.UPF: wavefunction(s)  6P 5D renormalized
     file Ni.UPF: wavefunction(s)  4S renormalized
 
     Subspace diagonalization in iterative solution of the eigenvalue problem:
     a serial algorithm will be used

 
     G-vector sticks info
     --------------------
     sticks:   dense  smooth     PW     G-vecs:    dense   smooth      PW
     Sum        4993    3331    847               470493   256105   32043
 
     Using Slab Decomposition
 


     bravais-lattice index     =            0
     lattice parameter (alat)  =      20.0788  a.u.
     unit-cell volume          =   11538.2465 (a.u.)^3
     number of atoms/cell      =           28
     number of atomic types    =            3
     number of electrons       =       213.00
     number of Kohn-Sham states=          128
     kinetic-energy cutoff     =      30.0000  Ry
     charge density cutoff     =     180.0000  Ry
     scf convergence threshold =      1.0E-07
     mixing beta               =       0.4000
     number of iterations used =            8  plain     mixing
     Exchange-correlation= PBE
                           (   1   4   3   4   0   0   0)

     GPU acceleration is ACTIVE.  1 visible GPUs per MPI rank


     celldm(1)=  20.078800  celldm(2)=   0.000000  celldm(3)=   0.000000
     celldm(4)=   0.000000  celldm(5)=   0.000000  celldm(6)=   0.000000

     crystal axes: (cart. coord. in units of alat)
               a(1) = (   1.000000   0.000000   0.000000 )  
               a(2) = (  -0.500000   0.866025   0.000000 )  
               a(3) = (   0.000000   0.000000   1.645872 )  

     reciprocal axes: (cart. coord. in units 2 pi/alat)
               b(1) = (  1.000000  0.577350 -0.000000 )  
               b(2) = (  0.000000  1.154701  0.000000 )  
               b(3) = (  0.000000 -0.000000  0.607581 )  


     PseudoPot. # 1 for Bi read from file:
     /root/qe_pseudos/Bi.UPF
     MD5 check sum: 266ded784ae3bc462508ed03f0f37963
     Pseudo is Projector augmented-wave + core cor, Zval = 15.0
     Generated using &quot;atomic&quot; code by A. Dal Corso  v.6.2.2
     Shape of augmentation charge: PSQ
     Using radial grid of 1283 points,  6 beta functions with: 
                l(1) =   0
                l(2) =   0
                l(3) =   1
                l(4) =   1
                l(5) =   2
                l(6) =   2
     Q(r) pseudized with 0 coefficients 


     PseudoPot. # 2 for Ni read from file:
     /root/qe_pseudos/Ni.UPF
     MD5 check sum: f3dced881015233e580a368199c8c48a
     Pseudo is Ultrasoft + core correction, Zval = 10.0
     Generated by new atomic code, or converted to UPF format
     Using radial grid of 1203 points,  6 beta functions with: 
                l(1) =   0
                l(2) =   0
                l(3) =   1
                l(4) =   1
                l(5) =   2
                l(6) =   2
     Q(r) pseudized with 0 coefficients 


     PseudoPot. # 3 for Se read from file:
     /root/qe_pseudos/Se.UPF
     MD5 check sum: 8e2a6847b5cb9faee9497ebb573e71ea
     Pseudo is Ultrasoft + core correction, Zval =  6.0
     Generated using &quot;atomic&quot; code by A. Dal Corso  v.6.3
     Using radial grid of 1211 points,  4 beta functions with: 
                l(1) =   0
                l(2) =   0
                l(3) =   1
                l(4) =   1
     Q(r) pseudized with 0 coefficients 


     atomic species   valence    mass     pseudopotential
     Bi               15.00   208.98040     Bi( 1.00)
     Ni               10.00    58.69340     Ni( 1.00)
     Se                6.00    78.97100     Se( 1.00)

     No symmetry found



   Cartesian axes

     site n.     atom                  positions (alat units)
         1        Ni     tau(   1) = (   0.3319681   0.5782695   0.8158394  )
         2        Ni     tau(   2) = (   0.4986431   0.2891591   0.8180497  )
         3        Ni     tau(   3) = (   0.6644178  -0.0003999   0.8218935  )
         4        Ni     tau(   4) = (  -0.0007164   0.5795802   0.8214573  )
         5        Ni     tau(   5) = (   0.1860421   0.2902701   0.8015653  )
         6        Ni     tau(   6) = (   0.3375550  -0.0024481   0.8124712  )
         7        Ni     tau(   7) = (   0.0077303  -0.0175585   0.8015505  )
         8        Ni     tau(   8) = (  -0.3346121   0.5779950   0.8181911  )
         9        Ni     tau(   9) = (  -0.1869838   0.3004646   0.8037515  )
        10        Se     tau(  10) = (  -0.3201080   0.7612645   0.6941923  )
        11        Se     tau(  11) = (   0.4988569   0.6741699   0.9291634  )
        12        Se     tau(  12) = (   0.1789113   0.0901584   0.9721240  )
        13        Se     tau(  13) = (   0.4989113   0.4814535   0.7030227  )
        14        Se     tau(  14) = (   0.6493661   0.3946499   0.9561007  )
        15        Se     tau(  15) = (   0.0171747   0.1826847   0.7098075  )
        16        Se     tau(  16) = (   0.6470426   0.1741576   0.6831421  )
        17        Se     tau(  17) = (   0.8112051   0.0709400   0.9986713  )
        18        Se     tau(  18) = (   0.0069876   0.7661361   0.6944736  )
        19        Se     tau(  19) = (   0.1667446   0.6732455   0.9353919  )
        20        Se     tau(  20) = (   0.0100305   0.4172694   0.9992524  )
        21        Se     tau(  21) = (   0.1629676   0.4850309   0.7001918  )
        22        Se     tau(  22) = (   0.3274893   0.7710539   0.6997996  )
        23        Se     tau(  23) = (  -0.1606521   0.5073737   0.6831860  )
        24        Se     tau(  24) = (   0.3474503   0.1849355   0.6931426  )
        25        Se     tau(  25) = (   0.4959135   0.0973278   0.9364175  )
        26        Se     tau(  26) = (  -0.1697160   0.6762576   0.9362865  )
        27        Se     tau(  27) = (   0.3323927   0.3855023   0.9288420  )
        28        Bi     tau(  28) = (  -0.0121842   0.1999526   0.9498245  )

     number of k points=     1  Methfessel-Paxton smearing, width (Ry)=  0.0100
                       cart. coord. in units 2pi/alat
        k(    1) = (   0.0000000   0.0000000   0.0000000), wk =   2.0000000

     Dense  grid:   470493 G-vectors     FFT dimensions: (  90,  90, 144)

     Smooth grid:   256105 G-vectors     FFT dimensions: (  72,  72, 120)

     Estimated max dynamical RAM per process >       2.19 GB

     Check: negative core charge=   -0.000037

     Initial potential from superposition of free atoms

     starting charge     212.9937, renormalised to     213.0000

     negative rho (up, down):  9.096E-02 0.000E+00
     Starting wfcs are  135 randomized atomic wfcs
     Checking if some PAW data can be deallocated... 

     total cpu time spent up to now is        9.3 secs

     Self-consistent Calculation

     iteration #  1     ecut=    30.00 Ry     beta= 0.40
     Davidson diagonalization with overlap
     ethr =  1.00E-02,  avg # of iterations =  7.0

     negative rho (up, down):  8.288E-02 0.000E+00

     total cpu time spent up to now is       10.8 secs

     total energy              =   -2048.27499289 Ry
     estimated scf accuracy    <      11.28693903 Ry

     iteration #  2     ecut=    30.00 Ry     beta= 0.40
     Davidson diagonalization with overlap
     ethr =  5.30E-03,  avg # of iterations =  3.0

     negative rho (up, down):  1.171E-01 0.000E+00

     total cpu time spent up to now is       12.1 secs

     total energy              =   -2051.81171600 Ry
     estimated scf accuracy    <      30.13364273 Ry

     iteration #  3     ecut=    30.00 Ry     beta= 0.40
     Davidson diagonalization with overlap
     ethr =  5.30E-03,  avg # of iterations =  2.0

     negative rho (up, down):  1.170E-01 0.000E+00

     total cpu time spent up to now is       13.3 secs

     total energy              =   -2053.40182660 Ry
     estimated scf accuracy    <       6.16259499 Ry

     iteration #  4     ecut=    30.00 Ry     beta= 0.40
     Davidson diagonalization with overlap
     ethr =  2.89E-03,  avg # of iterations =  1.0

     negative rho (up, down):  1.120E-01 0.000E+00

     total cpu time spent up to now is       14.5 secs

     total energy              =   -2053.61763169 Ry
     estimated scf accuracy    <       2.82698496 Ry

     iteration #  5     ecut=    30.00 Ry     beta= 0.40
     Davidson diagonalization with overlap
     ethr =  1.33E-03,  avg # of iterations =  1.0

     negative rho (up, down):  1.035E-01 0.000E+00

     total cpu time spent up to now is       15.7 secs

     total energy              =   -2053.59191883 Ry
     estimated scf accuracy    <       1.25662364 Ry

     iteration #  6     ecut=    30.00 Ry     beta= 0.40
     Davidson diagonalization with overlap
     ethr =  5.90E-04,  avg # of iterations =  4.0

     negative rho (up, down):  9.501E-02 0.000E+00

     total cpu time spent up to now is       17.0 secs

     total energy              =   -2053.67857062 Ry
     estimated scf accuracy    <       0.23136477 Ry

     iteration #  7     ecut=    30.00 Ry     beta= 0.40
     Davidson diagonalization with overlap
     ethr =  1.09E-04,  avg # of iterations =  8.0

     negative rho (up, down):  9.345E-02 0.000E+00

     total cpu time spent up to now is       18.4 secs

     total energy              =   -2053.68558439 Ry
     estimated scf accuracy    <       0.50479443 Ry

     iteration #  8     ecut=    30.00 Ry     beta= 0.40
     Davidson diagonalization with overlap
     ethr =  1.09E-04,  avg # of iterations =  1.0

     negative rho (up, down):  9.167E-02 0.000E+00

     total cpu time spent up to now is       19.6 secs

     total energy              =   -2053.67186014 Ry
     estimated scf accuracy    <       0.50208651 Ry

     iteration #  9     ecut=    30.00 Ry     beta= 0.40
     Davidson diagonalization with overlap
     ethr =  1.09E-04,  avg # of iterations =  1.0

     negative rho (up, down):  8.978E-02 0.000E+00

     total cpu time spent up to now is       20.9 secs

     total energy              =   -2053.69226712 Ry
     estimated scf accuracy    <       0.10325471 Ry

     iteration # 10     ecut=    30.00 Ry     beta= 0.40
     Davidson diagonalization with overlap
     ethr =  4.85E-05,  avg # of iterations =  1.0

     negative rho (up, down):  8.945E-02 0.000E+00

     total cpu time spent up to now is       22.1 secs

     total energy              =   -2053.70083492 Ry
     estimated scf accuracy    <       0.09231674 Ry

     iteration # 11     ecut=    30.00 Ry     beta= 0.40
     Davidson diagonalization with overlap
     ethr =  4.33E-05,  avg # of iterations =  1.0

     negative rho (up, down):  8.963E-02 0.000E+00

     total cpu time spent up to now is       23.2 secs

     total energy              =   -2053.69333352 Ry
     estimated scf accuracy    <       0.11873774 Ry

     iteration # 12     ecut=    30.00 Ry     beta= 0.40
     Davidson diagonalization with overlap
     ethr =  4.33E-05,  avg # of iterations =  1.0

     negative rho (up, down):  8.925E-02 0.000E+00

     total cpu time spent up to now is       24.4 secs

     total energy              =   -2053.69989673 Ry
     estimated scf accuracy    <       0.00714942 Ry

     iteration # 13     ecut=    30.00 Ry     beta= 0.40
     Davidson diagonalization with overlap
     ethr =  3.36E-06,  avg # of iterations = 14.0

     negative rho (up, down):  8.913E-02 0.000E+00

     total cpu time spent up to now is       26.4 secs

     total energy              =   -2053.69998169 Ry
     estimated scf accuracy    <       0.00684510 Ry

     iteration # 14     ecut=    30.00 Ry     beta= 0.40
     Davidson diagonalization with overlap
     ethr =  3.21E-06,  avg # of iterations =  1.0

     negative rho (up, down):  8.903E-02 0.000E+00

     total cpu time spent up to now is       27.6 secs

     total energy              =   -2053.70007475 Ry
     estimated scf accuracy    <       0.01090481 Ry

     iteration # 15     ecut=    30.00 Ry     beta= 0.40
     Davidson diagonalization with overlap
     ethr =  3.21E-06,  avg # of iterations =  1.0

     negative rho (up, down):  8.887E-02 0.000E+00

     total cpu time spent up to now is       28.8 secs

     total energy              =   -2053.70031178 Ry
     estimated scf accuracy    <       0.00945533 Ry

     iteration # 16     ecut=    30.00 Ry     beta= 0.40
     Davidson diagonalization with overlap
     ethr =  3.21E-06,  avg # of iterations =  1.0

     negative rho (up, down):  8.886E-02 0.000E+00

     total cpu time spent up to now is       30.0 secs

     total energy              =   -2053.70060698 Ry
     estimated scf accuracy    <       0.00089825 Ry

     iteration # 17     ecut=    30.00 Ry     beta= 0.40
     Davidson diagonalization with overlap
     ethr =  4.22E-07,  avg # of iterations =  1.0

     negative rho (up, down):  8.884E-02 0.000E+00

     total cpu time spent up to now is       31.1 secs

     total energy              =   -2053.70064933 Ry
     estimated scf accuracy    <       0.00067025 Ry

     iteration # 18     ecut=    30.00 Ry     beta= 0.40
     Davidson diagonalization with overlap
     ethr =  3.15E-07,  avg # of iterations =  1.0

     negative rho (up, down):  8.880E-02 0.000E+00

     total cpu time spent up to now is       32.3 secs

     total energy              =   -2053.70068389 Ry
     estimated scf accuracy    <       0.00033997 Ry

     iteration # 19     ecut=    30.00 Ry     beta= 0.40
     Davidson diagonalization with overlap
     ethr =  1.60E-07,  avg # of iterations =  1.0

     negative rho (up, down):  8.878E-02 0.000E+00

     total cpu time spent up to now is       33.5 secs

     total energy              =   -2053.70068997 Ry
     estimated scf accuracy    <       0.00029636 Ry

     iteration # 20     ecut=    30.00 Ry     beta= 0.40
     Davidson diagonalization with overlap
     ethr =  1.39E-07,  avg # of iterations =  1.0

     negative rho (up, down):  8.878E-02 0.000E+00

     total cpu time spent up to now is       34.7 secs

     total energy              =   -2053.70070681 Ry
     estimated scf accuracy    <       0.00006030 Ry

     iteration # 21     ecut=    30.00 Ry     beta= 0.40
     Davidson diagonalization with overlap
     ethr =  2.83E-08,  avg # of iterations =  1.0

     negative rho (up, down):  8.877E-02 0.000E+00

     total cpu time spent up to now is       35.9 secs

     total energy              =   -2053.70070752 Ry
     estimated scf accuracy    <       0.00006366 Ry

     iteration # 22     ecut=    30.00 Ry     beta= 0.40
     Davidson diagonalization with overlap
     ethr =  2.83E-08,  avg # of iterations =  1.0

     negative rho (up, down):  8.877E-02 0.000E+00

     total cpu time spent up to now is       37.1 secs

     total energy              =   -2053.70071001 Ry
     estimated scf accuracy    <       0.00004267 Ry

     iteration # 23     ecut=    30.00 Ry     beta= 0.40
     Davidson diagonalization with overlap
     ethr =  2.00E-08,  avg # of iterations =  1.0

     negative rho (up, down):  8.877E-02 0.000E+00

     total cpu time spent up to now is       38.3 secs

     total energy              =   -2053.70071184 Ry
     estimated scf accuracy    <       0.00002928 Ry

     iteration # 24     ecut=    30.00 Ry     beta= 0.40
     Davidson diagonalization with overlap
     ethr =  1.37E-08,  avg # of iterations =  1.0

     negative rho (up, down):  8.877E-02 0.000E+00

     total cpu time spent up to now is       39.5 secs

     total energy              =   -2053.70071216 Ry
     estimated scf accuracy    <       0.00001658 Ry

     iteration # 25     ecut=    30.00 Ry     beta= 0.40
     Davidson diagonalization with overlap
     ethr =  7.78E-09,  avg # of iterations =  2.0

     negative rho (up, down):  8.877E-02 0.000E+00

     total cpu time spent up to now is       40.7 secs

     total energy              =   -2053.70071081 Ry
     estimated scf accuracy    <       0.00009813 Ry

     iteration # 26     ecut=    30.00 Ry     beta= 0.40
     Davidson diagonalization with overlap
     ethr =  7.78E-09,  avg # of iterations =  2.0

     negative rho (up, down):  8.877E-02 0.000E+00

     total cpu time spent up to now is       41.9 secs

     total energy              =   -2053.70071352 Ry
     estimated scf accuracy    <       0.00000245 Ry

     iteration # 27     ecut=    30.00 Ry     beta= 0.40
     Davidson diagonalization with overlap
     ethr =  1.15E-09,  avg # of iterations =  1.0

     negative rho (up, down):  8.877E-02 0.000E+00

     total cpu time spent up to now is       43.1 secs

     total energy              =   -2053.70071351 Ry
     estimated scf accuracy    <       0.00000331 Ry

     iteration # 28     ecut=    30.00 Ry     beta= 0.40
     Davidson diagonalization with overlap
     ethr =  1.15E-09,  avg # of iterations =  1.0

     negative rho (up, down):  8.876E-02 0.000E+00

     total cpu time spent up to now is       44.3 secs

     total energy              =   -2053.70071362 Ry
     estimated scf accuracy    <       0.00000400 Ry

     iteration # 29     ecut=    30.00 Ry     beta= 0.40
     Davidson diagonalization with overlap
     ethr =  1.15E-09,  avg # of iterations =  1.0

     negative rho (up, down):  8.876E-02 0.000E+00

     total cpu time spent up to now is       45.5 secs

     total energy              =   -2053.70071380 Ry
     estimated scf accuracy    <       0.00000034 Ry

     iteration # 30     ecut=    30.00 Ry     beta= 0.40
     Davidson diagonalization with overlap
     ethr =  1.57E-10,  avg # of iterations =  2.0

     negative rho (up, down):  8.876E-02 0.000E+00

     total cpu time spent up to now is       46.7 secs

     total energy              =   -2053.70071382 Ry
     estimated scf accuracy    <       0.00000038 Ry

     iteration # 31     ecut=    30.00 Ry     beta= 0.40
     Davidson diagonalization with overlap
     ethr =  1.57E-10,  avg # of iterations =  1.0

     negative rho (up, down):  8.876E-02 0.000E+00

     total cpu time spent up to now is       47.9 secs

     total energy              =   -2053.70071383 Ry
     estimated scf accuracy    <       0.00000033 Ry

     iteration # 32     ecut=    30.00 Ry     beta= 0.40
     Davidson diagonalization with overlap
     ethr =  1.55E-10,  avg # of iterations =  1.0

     negative rho (up, down):  8.876E-02 0.000E+00

     total cpu time spent up to now is       49.1 secs

     total energy              =   -2053.70071385 Ry
     estimated scf accuracy    <       0.00000011 Ry

     iteration # 33     ecut=    30.00 Ry     beta= 0.40
     Davidson diagonalization with overlap
     ethr =  5.23E-11,  avg # of iterations =  1.0

     negative rho (up, down):  8.876E-02 0.000E+00

     total cpu time spent up to now is       50.3 secs

     End of self-consistent calculation

          k = 0.0000 0.0000 0.0000 ( 32043 PWs)   bands (ev):

   -24.7216 -24.6573 -24.6033 -24.5050 -24.4821 -16.5629 -15.3453 -14.6687
   -14.5697 -14.5250 -14.2946 -14.1679 -13.9975 -13.7677 -13.7329 -13.6221
   -13.5448 -13.4966 -13.4615 -13.3829 -13.3224 -13.2633 -13.1798 -10.5559
    -6.7447  -6.5299  -6.2909  -6.2042  -6.1465  -6.1031  -6.0134  -5.9438
    -5.8161  -5.6947  -5.5939  -5.5524  -5.4507  -5.4032  -5.3569  -5.2279
    -5.1647  -5.0846  -4.9890  -4.9008  -4.6526  -4.6457  -4.6253  -4.5052
    -4.4677  -4.4445  -4.3688  -4.3453  -4.3003  -4.2118  -4.0960  -4.0166
    -3.9824  -3.9037  -3.8082  -3.7325  -3.5408  -3.5022  -3.4133  -3.3437
    -3.3282  -3.2461  -3.1576  -3.1543  -3.0765  -3.0345  -3.0193  -2.9395
    -2.8981  -2.8656  -2.7611  -2.7576  -2.7039  -2.6334  -2.6037  -2.5411
    -2.5356  -2.5048  -2.5043  -2.4280  -2.3638  -2.3606  -2.2956  -2.2555
    -2.2537  -2.1656  -2.1518  -2.0302  -2.0253  -1.9825  -1.9381  -1.8721
    -1.8572  -1.7970  -1.7281  -1.6362  -1.5346  -1.4269  -1.1074  -1.0514
    -0.9544  -0.7046  -0.6137  -0.6036  -0.4878  -0.2557  -0.1788  -0.1421
    -0.1104  -0.0987   0.0261   0.0954   0.1488   0.3277   0.3396   0.4529
     0.6275   0.7153   0.8057   1.5938   2.4481   2.8834   2.9826   3.4805

     the Fermi energy is    -0.6366 ev

!    total energy              =   -2053.70071378 Ry
     estimated scf accuracy    <       0.00000009 Ry
     smearing contrib. (-TS)   =      -0.00470438 Ry
     internal energy E=F+TS    =   -2053.69600940 Ry

     The total energy is F=E-TS. E is the sum of the following terms:
     one-electron contribution =   -5561.46182349 Ry
     hartree contribution      =    2885.61824064 Ry
     xc contribution           =    -419.25383391 Ry
     ewald contribution        =    1797.82617741 Ry
     one-center paw contrib.   =    -756.42477005 Ry

     convergence has been achieved in  33 iterations

     negative rho (up, down):  8.876E-02 0.000E+00

     Forces acting on atoms (cartesian axes, Ry/au):

     atom    1 type  2   force =     0.00009038   -0.00066551   -0.00576378
     atom    2 type  2   force =     0.01303418   -0.00256217    0.00009431
     atom    3 type  2   force =    -0.00453896   -0.00406320    0.00111022
     atom    4 type  2   force =     0.00137559    0.00547843    0.00113097
     atom    5 type  2   force =     0.01524358    0.00024067   -0.00410533
     atom    6 type  2   force =     0.00038924   -0.00055241   -0.00424791
     atom    7 type  2   force =     0.00661032   -0.01334731   -0.00399770
     atom    8 type  2   force =     0.00880102   -0.01052954    0.00047393
     atom    9 type  2   force =    -0.03540637    0.02054960   -0.03611066
     atom   10 type  3   force =     0.00656279    0.00033988   -0.00993133
     atom   11 type  3   force =    -0.00577262   -0.01022576    0.00967842
     atom   12 type  3   force =     0.15579128   -0.08881652    0.02782068
     atom   13 type  3   force =     0.00535529   -0.00229206   -0.00060834
     atom   14 type  3   force =     0.01607979   -0.00944150   -0.04143044
     atom   15 type  3   force =    -0.03394686    0.01894469   -0.09527431
     atom   16 type  3   force =     0.02676787    0.02679823    0.02813229
     atom   17 type  3   force =    -0.12541672   -0.08296883    0.04265465
     atom   18 type  3   force =     0.00207793   -0.00159421    0.01532758
     atom   19 type  3   force =    -0.00586749    0.00397144   -0.00130320
     atom   20 type  3   force =     0.00783846    0.15057423    0.04356494
     atom   21 type  3   force =     0.00239126   -0.00799714   -0.00212813
     atom   22 type  3   force =     0.00801871    0.00192310   -0.00172335
     atom   23 type  3   force =    -0.00984203   -0.03678616    0.02758607
     atom   24 type  3   force =     0.00366675   -0.00614182   -0.00861456
     atom   25 type  3   force =     0.00184386    0.00283544   -0.00177411
     atom   26 type  3   force =    -0.00171968   -0.00191555   -0.00222606
     atom   27 type  3   force =     0.00589686    0.01095400    0.01045101
     atom   28 type  1   force =    -0.06532442    0.03728996    0.01121413

     Total force =     0.331797     Total SCF correction =     0.000649


     Computing stress (Cartesian axis) and pressure


     negative rho (up, down):  8.876E-02 0.000E+00
          total   stress  (Ry/bohr**3)                   (kbar)     P=      -28.06
  -0.00017279   0.00000843  -0.00001061          -25.42        1.24       -1.56
   0.00000843  -0.00016232   0.00000694            1.24      -23.88        1.02
  -0.00001061   0.00000694  -0.00023703           -1.56        1.02      -34.87


     Writing all to output data dir /root/qe_scratch/cand256_B_NiSe2_Bi.save/ :
     XML data file, charge density, pseudopotentials, collected wavefunctions
 
     init_run     :      6.57s CPU      8.54s WALL (       1 calls)
     electrons    :     36.20s CPU     41.05s WALL (       1 calls)
     forces       :      0.83s CPU      0.87s WALL (       1 calls)
     stress       :      0.60s CPU      0.63s WALL (       1 calls)

     Called by init_run:
     wfcinit      :      0.17s CPU      0.38s WALL (       1 calls)
     potinit      :      5.48s CPU      7.00s WALL (       1 calls)
     hinit0       :      0.49s CPU      0.59s WALL (       1 calls)

     Called by electrons:
     c_bands      :      6.33s CPU      6.36s WALL (      33 calls)
     sum_band     :      2.39s CPU      2.42s WALL (      33 calls)
     v_of_rho     :      2.55s CPU      3.42s WALL (      34 calls)
     newd         :      7.75s CPU      7.87s WALL (      34 calls)
                                        7.87s GPU  (      34 calls)
     PAW_pot      :     12.33s CPU     15.30s WALL (      34 calls)
     mix_rho      :      1.35s CPU      1.39s WALL (      33 calls)

     Called by c_bands:
     init_us_2    :      0.07s CPU      0.07s WALL (      67 calls)
     cegterg      :      6.13s CPU      6.16s WALL (      33 calls)

     Called by *egterg:
     cdiaghg      :      0.81s CPU      0.84s WALL (     101 calls)
                                        0.84s GPU  (     101 calls)
     h_psi        :      2.62s CPU      2.82s WALL (     102 calls)
                                        2.81s GPU  (     102 calls)
     s_psi        :      0.10s CPU      0.10s WALL (     102 calls)
     g_psi        :      0.00s CPU      0.01s WALL (      68 calls)
                                        0.01s GPU  (      68 calls)

     Called by h_psi:
     h_psi:calbec :      0.07s CPU      0.78s WALL (     102 calls)
                                        0.78s GPU  (     102 calls)
     vloc_psi     :      1.44s CPU      1.46s WALL (     102 calls)
                                        1.46s GPU  (     102 calls)
     add_vuspsi   :      0.10s CPU      0.56s WALL (     102 calls)
                                        0.56s GPU  (     102 calls)

     General routines
     calbec       :      0.08s CPU      0.25s WALL (     140 calls)
     fft          :      5.82s CPU      7.55s WALL (     465 calls)
                                        0.07s GPU  (     431 calls)
     ffts         :      2.37s CPU      2.97s WALL (      67 calls)
                                        0.00s GPU  (      33 calls)
     fftw         :      0.03s CPU      1.46s WALL (    1432 calls)
                                        1.46s GPU  (    1432 calls)
     interpolate  :      8.35s CPU     10.63s WALL (      34 calls)
 
     Parallel routines
 
     PWSCF        :     45.00s CPU     52.05s WALL

 
   This run was terminated on:   3:11:59   7May2026            

=------------------------------------------------------------------------------=
   JOB DONE.
=------------------------------------------------------------------------------=
Warning: ieee_invalid is signaling
Warning: ieee_divide_by_zero is signaling
Warning: ieee_inexact is signaling
FORTRAN STOP
