--------------------------------------------------------------------------
WARNING: Open MPI tried to bind a process but failed.  This is a
warning only; your job will continue, though performance may
be degraded.

  Local host:        3253031b5b37
  Application name:  /root/qe-7.3.1/bin/pw.x
  Error message:     failed to bind memory
  Location:          ../../../../../orte/mca/rtc/hwloc/rtc_hwloc.c:447

--------------------------------------------------------------------------

     Program PWSCF v.7.3.1 starts on  6May2026 at 12:44:44 

     This program is part of the open-source Quantum ESPRESSO suite
     for quantum simulation of materials; please cite
         "P. Giannozzi et al., J. Phys.:Condens. Matter 21 395502 (2009);
         "P. Giannozzi et al., J. Phys.:Condens. Matter 29 465901 (2017);
         "P. Giannozzi et al., J. Chem. Phys. 152 154105 (2020);
          URL http://www.quantum-espresso.org", 
     in publications or presentations arising from this work. More details at
     http://www.quantum-espresso.org/quote

     Parallel version (MPI & OpenMP), running on       8 processor cores
     Number of MPI processes:                 1
     Threads/MPI process:                     8

     MPI processes distributed on     1 nodes
     84246 MiB available memory on the printing compute node when the environment starts
 
     Reading input from cand024_B_NbS2_Bi.in

     Current dimensions of program PWSCF are:
     Max number of different atomic species (ntypx) = 10
     Max number of k-points (npk) =  40000
     Max angular momentum in pseudopotentials (lmaxx) =  4
     file Bi.UPF: wavefunction(s)  6P 5D renormalized
     file Nb.UPF: wavefunction(s)  4S 4P 4D renormalized
     file S.UPF: wavefunction(s)  3S 3P renormalized
 
     Subspace diagonalization in iterative solution of the eigenvalue problem:
     a serial algorithm will be used

 
     G-vector sticks info
     --------------------
     sticks:   dense  smooth     PW     G-vecs:    dense   smooth      PW
     Sum        4471    2989    745               435105   236543   29687
 
     Using Slab Decomposition
 


     bravais-lattice index     =            0
     lattice parameter (alat)  =      18.9603  a.u.
     unit-cell volume          =   10663.0818 (a.u.)^3
     number of atoms/cell      =           28
     number of atomic types    =            3
     number of electrons       =       240.00
     number of Kohn-Sham states=          144
     kinetic-energy cutoff     =      30.0000  Ry
     charge density cutoff     =     180.0000  Ry
     scf convergence threshold =      1.0E-07
     mixing beta               =       0.4000
     number of iterations used =            8  plain     mixing
     Exchange-correlation= SLA  PW   PBX  PBC
                           (   1   4   3   4   0   0   0)

     GPU acceleration is ACTIVE.  1 visible GPUs per MPI rank


     celldm(1)=  18.960262  celldm(2)=   0.000000  celldm(3)=   0.000000
     celldm(4)=   0.000000  celldm(5)=   0.000000  celldm(6)=   0.000000

     crystal axes: (cart. coord. in units of alat)
               a(1) = (   1.000000   0.000000   0.000000 )  
               a(2) = (  -0.500000   0.866025   0.000000 )  
               a(3) = (   0.000000   0.000000   1.806422 )  

     reciprocal axes: (cart. coord. in units 2 pi/alat)
               b(1) = (  1.000000  0.577350 -0.000000 )  
               b(2) = (  0.000000  1.154701  0.000000 )  
               b(3) = (  0.000000 -0.000000  0.553581 )  


     PseudoPot. # 1 for Bi read from file:
     /root/qe_pseudos/Bi.UPF
     MD5 check sum: 266ded784ae3bc462508ed03f0f37963
     Pseudo is Projector augmented-wave + core cor, Zval = 15.0
     Generated using &quot;atomic&quot; code by A. Dal Corso  v.6.2.2
     Shape of augmentation charge: PSQ
     Using radial grid of 1283 points,  6 beta functions with: 
                l(1) =   0
                l(2) =   0
                l(3) =   1
                l(4) =   1
                l(5) =   2
                l(6) =   2
     Q(r) pseudized with 0 coefficients 


     PseudoPot. # 2 for Nb read from file:
     /root/qe_pseudos/Nb.UPF
     MD5 check sum: dcedcbb129af9a7271e4748e5febedb1
     Pseudo is Projector augmented-wave + core cor, Zval = 13.0
     Generated using &quot;atomic&quot; code by A. Dal Corso  v.6.2.2
     Shape of augmentation charge: PSQ
     Using radial grid of 1227 points,  6 beta functions with: 
                l(1) =   0
                l(2) =   0
                l(3) =   1
                l(4) =   1
                l(5) =   2
                l(6) =   2
     Q(r) pseudized with 0 coefficients 


     PseudoPot. # 3 for S  read from file:
     /root/qe_pseudos/S.UPF
     MD5 check sum: fb45dfebcf3e72a4e1bd4a866ec2e262
     Pseudo is Projector augmented-wave + core cor, Zval =  6.0
     Generated using &quot;atomic&quot; code by A. Dal Corso  v.6.3
     Shape of augmentation charge: PSQ
     Using radial grid of 1151 points,  6 beta functions with: 
                l(1) =   0
                l(2) =   0
                l(3) =   1
                l(4) =   1
                l(5) =   2
                l(6) =   2
     Q(r) pseudized with 0 coefficients 


     atomic species   valence    mass     pseudopotential
     Bi               15.00   208.98040     Bi( 1.00)
     Nb               13.00    92.90640     Nb( 1.00)
     S                 6.00    32.06000     S ( 1.00)

     No symmetry found



   Cartesian axes

     site n.     atom                  positions (alat units)
         1        Nb     tau(   1) = (   0.3331033   0.5774810   0.9028383  )
         2        Nb     tau(   2) = (   0.4998376   0.2860536   0.9049236  )
         3        Nb     tau(   3) = (   0.6620466  -0.0004431   0.9095785  )
         4        Nb     tau(   4) = (  -0.0019241   0.5815740   0.9095872  )
         5        Nb     tau(   5) = (   0.1713857   0.2850642   0.9014702  )
         6        Nb     tau(   6) = (   0.3346972  -0.0007839   0.9069744  )
         7        Nb     tau(   7) = (   0.0054846  -0.0022844   0.9014506  )
         8        Nb     tau(   8) = (  -0.3311421   0.5787978   0.9049226  )
         9        Nb     tau(   9) = (  -0.1738676   0.2928205   0.8899274  )
        10        S      tau(  10) = (  -0.1647457   0.6722070   0.7496001  )
        11        S      tau(  11) = (   0.5001749   0.6733716   1.0574869  )
        12        S      tau(  12) = (   0.1696120   0.0945082   1.0592503  )
        13        S      tau(  13) = (   0.6598017   0.3888658   0.7448124  )
        14        S      tau(  14) = (   0.6671308   0.3846295   1.0565633  )
        15        S      tau(  15) = (   0.1682494   0.0953246   0.7463772  )
        16        S      tau(  16) = (   0.8320559   0.0921576   0.7513750  )
        17        S      tau(  17) = (   0.8387133   0.0885037   1.0757319  )
        18        S      tau(  18) = (   0.1649473   0.6745657   0.7509041  )
        19        S      tau(  19) = (   0.1659083   0.6740107   1.0621036  )
        20        S      tau(  20) = (   0.0094313   0.3841993   1.0758049  )
        21        S      tau(  21) = (   0.3340770   0.3835640   0.7479585  )
        22        S      tau(  22) = (   0.5015167   0.6735953   0.7479604  )
        23        S      tau(  23) = (   0.0028914   0.3880324   0.7513923  )
        24        S      tau(  24) = (   0.5021470   0.0952494   0.7495993  )
        25        S      tau(  25) = (   0.4980699   0.0963240   1.0629598  )
        26        S      tau(  26) = (  -0.1677172   0.6752052   1.0629612  )
        27        S      tau(  27) = (   0.3335965   0.3848532   1.0574887  )
        28        Bi     tau(  28) = (  -0.0988150   0.2493952   1.0931312  )

     number of k points=     1  Methfessel-Paxton smearing, width (Ry)=  0.0100
                       cart. coord. in units 2pi/alat
        k(    1) = (   0.0000000   0.0000000   0.0000000), wk =   2.0000000

     Dense  grid:   435105 G-vectors     FFT dimensions: (  81,  81, 150)

     Smooth grid:   236543 G-vectors     FFT dimensions: (  72,  72, 120)

     Estimated max dynamical RAM per process >       2.10 GB

     Check: negative core charge=   -0.000003

     Initial potential from superposition of free atoms

     starting charge     239.9868, renormalised to     240.0000

     negative rho (up, down):  2.593E-02 0.000E+00
     Starting wfcs are  198 randomized atomic wfcs
     Checking if some PAW data can be deallocated... 

     total cpu time spent up to now is       21.9 secs

     Self-consistent Calculation

     iteration #  1     ecut=    30.00 Ry     beta= 0.40
     Davidson diagonalization with overlap
     ethr =  1.00E-02,  avg # of iterations =  3.0

     Threshold (ethr) on eigenvalues was too large:
     Diagonalizing with lowered threshold

     Davidson diagonalization with overlap
     ethr =  8.16E-04,  avg # of iterations =  2.0

     negative rho (up, down):  2.818E-02 0.000E+00

     total cpu time spent up to now is       34.6 secs

     total energy              =   -5106.98622047 Ry
     estimated scf accuracy    <       2.11537955 Ry

     iteration #  2     ecut=    30.00 Ry     beta= 0.40
     Davidson diagonalization with overlap
     ethr =  8.81E-04,  avg # of iterations =  5.0
     Minimization algorithm failed to find Fermi energy: reverting to bisection
     Possible cause: smearing is larger than the electronic band-gap.

     negative rho (up, down):  2.942E-02 0.000E+00

     total cpu time spent up to now is       46.9 secs

     total energy              =   -5107.02387077 Ry
     estimated scf accuracy    <       3.56763268 Ry

     iteration #  3     ecut=    30.00 Ry     beta= 0.40
     Davidson diagonalization with overlap
     ethr =  8.81E-04,  avg # of iterations =  3.0

     negative rho (up, down):  3.046E-02 0.000E+00

     total cpu time spent up to now is       59.2 secs

     total energy              =   -5107.50495134 Ry
     estimated scf accuracy    <       0.53648325 Ry

     iteration #  4     ecut=    30.00 Ry     beta= 0.40
     Davidson diagonalization with overlap
     ethr =  2.24E-04,  avg # of iterations =  3.0
     Minimization algorithm failed to find Fermi energy: reverting to bisection
     Possible cause: smearing is larger than the electronic band-gap.

     negative rho (up, down):  3.115E-02 0.000E+00

     total cpu time spent up to now is       71.4 secs

     total energy              =   -5107.54533990 Ry
     estimated scf accuracy    <       0.32350300 Ry

     iteration #  5     ecut=    30.00 Ry     beta= 0.40
     Davidson diagonalization with overlap
     ethr =  1.35E-04,  avg # of iterations =  2.0
     Minimization algorithm failed to find Fermi energy: reverting to bisection
     Possible cause: smearing is larger than the electronic band-gap.

     negative rho (up, down):  3.157E-02 0.000E+00

     total cpu time spent up to now is       83.5 secs

     total energy              =   -5107.58513147 Ry
     estimated scf accuracy    <       0.05378117 Ry

     iteration #  6     ecut=    30.00 Ry     beta= 0.40
     Davidson diagonalization with overlap
     ethr =  2.24E-05,  avg # of iterations =  8.0
     Minimization algorithm failed to find Fermi energy: reverting to bisection
     Possible cause: smearing is larger than the electronic band-gap.

     negative rho (up, down):  3.182E-02 0.000E+00

     total cpu time spent up to now is       95.8 secs

     total energy              =   -5107.58946675 Ry
     estimated scf accuracy    <       0.01948437 Ry

     iteration #  7     ecut=    30.00 Ry     beta= 0.40
     Davidson diagonalization with overlap
     ethr =  8.12E-06,  avg # of iterations =  8.0
     Minimization algorithm failed to find Fermi energy: reverting to bisection
     Possible cause: smearing is larger than the electronic band-gap.

     negative rho (up, down):  3.200E-02 0.000E+00

     total cpu time spent up to now is      108.1 secs

     total energy              =   -5107.59175786 Ry
     estimated scf accuracy    <       0.01207789 Ry

     iteration #  8     ecut=    30.00 Ry     beta= 0.40
     Davidson diagonalization with overlap
     ethr =  5.03E-06,  avg # of iterations =  2.0
     Minimization algorithm failed to find Fermi energy: reverting to bisection
     Possible cause: smearing is larger than the electronic band-gap.

     negative rho (up, down):  3.212E-02 0.000E+00

     total cpu time spent up to now is      120.2 secs

     total energy              =   -5107.59287468 Ry
     estimated scf accuracy    <       0.00372126 Ry

     iteration #  9     ecut=    30.00 Ry     beta= 0.40
     Davidson diagonalization with overlap
     ethr =  1.55E-06,  avg # of iterations =  8.0
     Minimization algorithm failed to find Fermi energy: reverting to bisection
     Possible cause: smearing is larger than the electronic band-gap.

     negative rho (up, down):  3.218E-02 0.000E+00

     total cpu time spent up to now is      132.6 secs

     total energy              =   -5107.59324034 Ry
     estimated scf accuracy    <       0.00150662 Ry

     iteration # 10     ecut=    30.00 Ry     beta= 0.40
     Davidson diagonalization with overlap
     ethr =  6.28E-07,  avg # of iterations =  2.0
     Minimization algorithm failed to find Fermi energy: reverting to bisection
     Possible cause: smearing is larger than the electronic band-gap.

     negative rho (up, down):  3.221E-02 0.000E+00

     total cpu time spent up to now is      144.7 secs

     total energy              =   -5107.59343384 Ry
     estimated scf accuracy    <       0.00017530 Ry

     iteration # 11     ecut=    30.00 Ry     beta= 0.40
     Davidson diagonalization with overlap
     ethr =  7.30E-08,  avg # of iterations =  2.0
     Minimization algorithm failed to find Fermi energy: reverting to bisection
     Possible cause: smearing is larger than the electronic band-gap.

     negative rho (up, down):  3.223E-02 0.000E+00

     total cpu time spent up to now is      156.9 secs

     total energy              =   -5107.59345063 Ry
     estimated scf accuracy    <       0.00003866 Ry

     iteration # 12     ecut=    30.00 Ry     beta= 0.40
     Davidson diagonalization with overlap
     ethr =  1.61E-08,  avg # of iterations =  6.0
     Minimization algorithm failed to find Fermi energy: reverting to bisection
     Possible cause: smearing is larger than the electronic band-gap.

     negative rho (up, down):  3.224E-02 0.000E+00

     total cpu time spent up to now is      169.2 secs

     total energy              =   -5107.59345643 Ry
     estimated scf accuracy    <       0.00006653 Ry

     iteration # 13     ecut=    30.00 Ry     beta= 0.40
     Davidson diagonalization with overlap
     ethr =  1.61E-08,  avg # of iterations =  2.0
     Minimization algorithm failed to find Fermi energy: reverting to bisection
     Possible cause: smearing is larger than the electronic band-gap.

     negative rho (up, down):  3.224E-02 0.000E+00

     total cpu time spent up to now is      181.3 secs

     total energy              =   -5107.59346295 Ry
     estimated scf accuracy    <       0.00000656 Ry

     iteration # 14     ecut=    30.00 Ry     beta= 0.40
     Davidson diagonalization with overlap
     ethr =  2.73E-09,  avg # of iterations =  5.0
     Minimization algorithm failed to find Fermi energy: reverting to bisection
     Possible cause: smearing is larger than the electronic band-gap.

     negative rho (up, down):  3.224E-02 0.000E+00

     total cpu time spent up to now is      193.5 secs

     total energy              =   -5107.59346405 Ry
     estimated scf accuracy    <       0.00000114 Ry

     iteration # 15     ecut=    30.00 Ry     beta= 0.40
     Davidson diagonalization with overlap
     ethr =  4.77E-10,  avg # of iterations =  4.0
     Minimization algorithm failed to find Fermi energy: reverting to bisection
     Possible cause: smearing is larger than the electronic band-gap.

     negative rho (up, down):  3.224E-02 0.000E+00

     total cpu time spent up to now is      205.7 secs

     total energy              =   -5107.59346418 Ry
     estimated scf accuracy    <       0.00000090 Ry

     iteration # 16     ecut=    30.00 Ry     beta= 0.40
     Davidson diagonalization with overlap
     ethr =  3.76E-10,  avg # of iterations =  2.0
     Minimization algorithm failed to find Fermi energy: reverting to bisection
     Possible cause: smearing is larger than the electronic band-gap.

     negative rho (up, down):  3.224E-02 0.000E+00

     total cpu time spent up to now is      217.9 secs

     total energy              =   -5107.59346430 Ry
     estimated scf accuracy    <       0.00000018 Ry

     iteration # 17     ecut=    30.00 Ry     beta= 0.40
     Davidson diagonalization with overlap
     ethr =  7.67E-11,  avg # of iterations =  2.0
     Minimization algorithm failed to find Fermi energy: reverting to bisection
     Possible cause: smearing is larger than the electronic band-gap.

     negative rho (up, down):  3.224E-02 0.000E+00

     total cpu time spent up to now is      230.1 secs

     End of self-consistent calculation

          k = 0.0000 0.0000 0.0000 ( 29687 PWs)   bands (ev):

   -55.3638 -55.3088 -55.2973 -55.2835 -55.2730 -55.2178 -55.2071 -55.2054
   -55.1781 -32.3835 -31.5461 -31.5252 -31.5236 -31.5124 -31.5064 -31.4938
   -31.4881 -31.4587 -31.4439 -31.4135 -31.3882 -31.3776 -31.3531 -31.3521
   -31.2923 -31.2790 -31.2675 -31.2614 -31.2521 -31.2459 -31.2339 -31.2277
   -31.2165 -31.2120 -31.1820 -31.1771 -29.7102 -27.2842 -27.0130 -25.8810
   -25.7390 -18.4401 -16.8343 -13.7443 -13.3116 -12.8903 -12.7810 -12.7755
   -12.6476 -12.5741 -12.5595 -12.3796 -12.3040 -12.2487 -12.2471 -12.2109
   -12.2065 -12.0338 -12.0309 -10.0541  -7.8304  -7.4978  -7.2632  -5.5177
    -5.4849  -5.2552  -5.1615  -5.1197  -5.0949  -4.9422  -4.8686  -4.7442
    -4.5461  -4.5333  -4.3904  -4.1841  -4.1562  -4.1194  -3.9934  -3.9623
    -3.9281  -3.8896  -3.8630  -3.8410  -3.7375  -3.7298  -3.5842  -3.3997
    -3.3341  -3.1716  -3.1038  -2.9987  -2.9494  -2.9024  -2.7950  -2.7535
    -2.7503  -2.5078  -2.3148  -2.1851  -2.0750  -2.0496  -2.0140  -1.8760
    -1.8398  -1.8270  -1.7929  -1.7608  -1.7295  -1.6564  -1.6453  -1.6034
    -1.5998  -1.2284  -0.9344  -0.7138  -0.6947  -0.6312  -0.5956  -0.2254
     0.1039   0.1792   0.6502   0.8746   1.1851   1.4688   1.7235   2.0791
     2.1070   2.1685   2.2936   2.3837   2.3989   2.4718   2.5041   2.5242
     2.5436   2.6700   2.6748   2.6826   2.6856   2.8075   2.8469   2.9335

     the Fermi energy is    -0.0041 ev

!    total energy              =   -5107.59346429 Ry
     total all-electron energy =   -126192.227664 Ry
     estimated scf accuracy    <       0.00000005 Ry
     smearing contrib. (-TS)   =       0.00245552 Ry
     internal energy E=F+TS    =   -5107.59591981 Ry

     The total energy is F=E-TS. E is the sum of the following terms:
     one-electron contribution =   -7940.98289750 Ry
     hartree contribution      =    4001.98486632 Ry
     xc contribution           =    -292.67502941 Ry
     ewald contribution        =    2680.14690661 Ry
     one-center paw contrib.   =   -3556.06976584 Ry

     convergence has been achieved in  17 iterations

     negative rho (up, down):  3.224E-02 0.000E+00

     Forces acting on atoms (cartesian axes, Ry/au):

     atom    1 type  2   force =    -0.02367428    0.01366179    0.00333329
     atom    2 type  2   force =     0.00412180   -0.01441327   -0.00663439
     atom    3 type  2   force =    -0.00359253   -0.00588513   -0.03054314
     atom    4 type  2   force =     0.00324011    0.00609608   -0.03056364
     atom    5 type  2   force =    -0.00122178    0.01861420    0.00483163
     atom    6 type  2   force =     0.00996585   -0.00577456   -0.01155669
     atom    7 type  2   force =    -0.01664168   -0.00825733    0.00478510
     atom    8 type  2   force =     0.01447495    0.00372721   -0.00660699
     atom    9 type  2   force =    -0.16720148    0.09676375   -0.52207188
     atom   10 type  3   force =    -0.00229685    0.00239184   -0.00165859
     atom   11 type  3   force =     0.00234078   -0.00045709    0.00840048
     atom   12 type  3   force =     0.00360567   -0.00204944    0.01028942
     atom   13 type  3   force =    -0.00719206    0.00414174   -0.00090423
     atom   14 type  3   force =    -0.02507482    0.01449135    0.01395601
     atom   15 type  3   force =     0.00603308   -0.00352206   -0.00332140
     atom   16 type  3   force =    -0.00509044    0.00020182   -0.00388498
     atom   17 type  3   force =    -0.58142696   -1.46894117   -0.15869985
     atom   18 type  3   force =    -0.00113071    0.00066645    0.00266696
     atom   19 type  3   force =     0.01680560   -0.00963814    0.00467586
     atom   20 type  3   force =     0.97043934    1.22471613   -0.15607293
     atom   21 type  3   force =    -0.00441273   -0.00153938   -0.00159790
     atom   22 type  3   force =    -0.00083212    0.00457341   -0.00163223
     atom   23 type  3   force =    -0.00277482    0.00428976   -0.00383235
     atom   24 type  3   force =    -0.00322133    0.00077506   -0.00165880
     atom   25 type  3   force =     0.00153052    0.00492547    0.00247960
     atom   26 type  3   force =    -0.00349945   -0.00380390    0.00247030
     atom   27 type  3   force =     0.00159168   -0.00181653    0.00842078
     atom   28 type  1   force =    -0.18486536    0.12606194    0.87493058

     Total force =     2.473631     Total SCF correction =     0.000778


     Computing stress (Cartesian axis) and pressure


     negative rho (up, down):  3.224E-02 0.000E+00
          total   stress  (Ry/bohr**3)                   (kbar)     P=       -0.57
  -0.00012004   0.00037532   0.00006614          -17.66       55.21        9.73
   0.00037532   0.00031522  -0.00003739           55.21       46.37       -5.50
   0.00006614  -0.00003739  -0.00020684            9.73       -5.50      -30.43


     Writing all to output data dir /root/qe_scratch/cand024_B_NbS2_Bi.save/ :
     XML data file, charge density, pseudopotentials, collected wavefunctions
 
     init_run     :     16.05s CPU     20.88s WALL (       1 calls)
     electrons    :    170.33s CPU    208.22s WALL (       1 calls)
     forces       :      0.31s CPU      0.34s WALL (       1 calls)
     stress       :      0.80s CPU      0.83s WALL (       1 calls)

     Called by init_run:
     wfcinit      :      0.26s CPU      0.43s WALL (       1 calls)
     potinit      :     14.96s CPU     19.38s WALL (       1 calls)
     hinit0       :      0.57s CPU      0.65s WALL (       1 calls)

     Called by electrons:
     c_bands      :      5.29s CPU      5.32s WALL (      18 calls)
     sum_band     :      1.63s CPU      1.64s WALL (      18 calls)
     v_of_rho     :      1.36s CPU      1.79s WALL (      18 calls)
     newd         :      0.98s CPU      1.06s WALL (      18 calls)
                                        1.06s GPU  (      18 calls)
     PAW_pot      :    167.77s CPU    207.10s WALL (      18 calls)
     mix_rho      :      0.57s CPU      0.60s WALL (      18 calls)

     Called by c_bands:
     init_us_2    :      0.04s CPU      0.05s WALL (      37 calls)
     cegterg      :      5.14s CPU      5.17s WALL (      18 calls)

     Called by *egterg:
     cdiaghg      :      0.79s CPU      0.82s WALL (      86 calls)
                                        0.82s GPU  (      86 calls)
     h_psi        :      2.32s CPU      2.48s WALL (      88 calls)
                                        2.48s GPU  (      88 calls)
     s_psi        :      0.11s CPU      0.11s WALL (      88 calls)
     g_psi        :      0.00s CPU      0.01s WALL (      69 calls)
                                        0.01s GPU  (      69 calls)

     Called by h_psi:
     h_psi:calbec :      0.11s CPU      0.82s WALL (      88 calls)
                                        0.82s GPU  (      88 calls)
     vloc_psi     :      1.01s CPU      1.02s WALL (      88 calls)
                                        1.02s GPU  (      88 calls)
     add_vuspsi   :      0.11s CPU      0.63s WALL (      88 calls)
                                        0.63s GPU  (      88 calls)

     General routines
     calbec       :      0.11s CPU      0.26s WALL (     111 calls)
     fft          :      5.36s CPU      7.23s WALL (     258 calls)
                                        0.04s GPU  (     240 calls)
     ffts         :      1.93s CPU      2.46s WALL (      36 calls)
                                        0.00s GPU  (      18 calls)
     fftw         :      0.03s CPU      1.00s WALL (     994 calls)
                                        1.00s GPU  (     994 calls)
     interpolate  :      7.35s CPU      9.74s WALL (      18 calls)
 
     Parallel routines
 
     PWSCF        :   3m 8.58s CPU   3m51.52s WALL

 
   This run was terminated on:  12:48:35   6May2026            

=------------------------------------------------------------------------------=
   JOB DONE.
=------------------------------------------------------------------------------=
Warning: ieee_invalid is signaling
Warning: ieee_divide_by_zero is signaling
Warning: ieee_inexact is signaling
FORTRAN STOP
