--------------------------------------------------------------------------
WARNING: Open MPI tried to bind a process but failed.  This is a
warning only; your job will continue, though performance may
be degraded.

  Local host:        3253031b5b37
  Application name:  /root/qe-7.3.1/bin/pw.x
  Error message:     failed to bind memory
  Location:          ../../../../../orte/mca/rtc/hwloc/rtc_hwloc.c:447

--------------------------------------------------------------------------

     Program PWSCF v.7.3.1 starts on  7May2026 at  2: 5: 9 

     This program is part of the open-source Quantum ESPRESSO suite
     for quantum simulation of materials; please cite
         "P. Giannozzi et al., J. Phys.:Condens. Matter 21 395502 (2009);
         "P. Giannozzi et al., J. Phys.:Condens. Matter 29 465901 (2017);
         "P. Giannozzi et al., J. Chem. Phys. 152 154105 (2020);
          URL http://www.quantum-espresso.org", 
     in publications or presentations arising from this work. More details at
     http://www.quantum-espresso.org/quote

     Parallel version (MPI & OpenMP), running on       8 processor cores
     Number of MPI processes:                 1
     Threads/MPI process:                     8

     MPI processes distributed on     1 nodes
     91803 MiB available memory on the printing compute node when the environment starts
 
     Reading input from cand127_B_C2H2_La.in

     Current dimensions of program PWSCF are:
     Max number of different atomic species (ntypx) = 10
     Max number of k-points (npk) =  40000
     Max angular momentum in pseudopotentials (lmaxx) =  4
     file La.UPF: wavefunction(s)  5S 5D 4F renormalized
     Message from routine setup:
     using ibrav=0 with symmetry is DISCOURAGED, use correct ibrav instead
 
     Subspace diagonalization in iterative solution of the eigenvalue problem:
     a serial algorithm will be used

 
     G-vector sticks info
     --------------------
     sticks:   dense  smooth     PW     G-vecs:    dense   smooth      PW
     Sum        4543    3049    757               410757   223959   27967
 
     Using Slab Decomposition
 


     bravais-lattice index     =            0
     lattice parameter (alat)  =      19.1916  a.u.
     unit-cell volume          =   10078.2675 (a.u.)^3
     number of atoms/cell      =           65
     number of atomic types    =            3
     number of electrons       =       171.00
     number of Kohn-Sham states=          103
     kinetic-energy cutoff     =      30.0000  Ry
     charge density cutoff     =     180.0000  Ry
     scf convergence threshold =      1.0E-07
     mixing beta               =       0.4000
     number of iterations used =            8  plain     mixing
     Exchange-correlation= SLA  PW   PBX  PBC
                           (   1   4   3   4   0   0   0)

     GPU acceleration is ACTIVE.  1 visible GPUs per MPI rank


     celldm(1)=  19.191551  celldm(2)=   0.000000  celldm(3)=   0.000000
     celldm(4)=   0.000000  celldm(5)=   0.000000  celldm(6)=   0.000000

     crystal axes: (cart. coord. in units of alat)
               a(1) = (   1.000000   0.000000   0.000000 )  
               a(2) = (  -0.500000   0.866025   0.000000 )  
               a(3) = (   0.000000   0.000000   1.646361 )  

     reciprocal axes: (cart. coord. in units 2 pi/alat)
               b(1) = (  1.000000  0.577350 -0.000000 )  
               b(2) = (  0.000000  1.154701  0.000000 )  
               b(3) = (  0.000000 -0.000000  0.607400 )  


     PseudoPot. # 1 for C  read from file:
     /root/qe_pseudos/C.UPF
     MD5 check sum: 9b35a7431356f8229172919cb1fa74b8
     Pseudo is Norm-conserving, Zval =  4.0
     Generated by new atomic code, or converted to UPF format
     Using radial grid of 1073 points,  1 beta functions with: 
                l(1) =   0

     PseudoPot. # 2 for H  read from file:
     /root/qe_pseudos/H.UPF
     MD5 check sum: a225a3f3a1be5237eb8f6a7e61cbb4ee
     Pseudo is Projector augmented-wave, Zval =  1.0
     Generated using "atomic" code by A. Dal Corso (espresso distribution)
     Shape of augmentation charge: PSQ
     Using radial grid of  929 points,  2 beta functions with: 
                l(1) =   0
                l(2) =   0
     Q(r) pseudized with 0 coefficients 


     PseudoPot. # 3 for La read from file:
     /root/qe_pseudos/La.UPF
     MD5 check sum: 6e6ac421535d279511fd22156ed99225
     Pseudo is Projector augmented-wave + core cor, Zval = 11.0
     Generated using &quot;atomic&quot; code by A. Dal Corso  v.6.2.2
     Shape of augmentation charge: PSQ
     Using radial grid of 1253 points,  8 beta functions with: 
                l(1) =   0
                l(2) =   0
                l(3) =   1
                l(4) =   1
                l(5) =   2
                l(6) =   2
                l(7) =   3
                l(8) =   3
     Q(r) pseudized with 0 coefficients 


     atomic species   valence    mass     pseudopotential
     C                 4.00    12.01100     C ( 1.00)
     H                 1.00     1.00800     H ( 1.00)
     La               11.00   138.90550     La( 1.00)

      6 Sym. Ops. (no inversion) found ( 4 have fractional translation)



   Cartesian axes

     site n.     atom                  positions (alat units)
         1        C      tau(   1) = (   0.0001976   0.5774645   0.8475620  )
         2        C      tau(   2) = (   0.2579657  -0.0045992   0.7912973  )
         3        C      tau(   3) = (  -0.1220647   0.7921620   0.8501530  )
         4        C      tau(   4) = (   0.5009194   0.1447867   0.8443827  )
         5        C      tau(   5) = (   0.2500768   0.4340412   0.8020095  )
         6        C      tau(   6) = (   0.3758486   0.3614156   0.8443827  )
         7        C      tau(   7) = (   0.1250000   0.6495191   0.8019126  )
         8        C      tau(   8) = (   0.2498023   0.5774645   0.8475620  )
         9        C      tau(   9) = (  -0.1241478   0.6489384   0.8020096  )
        10        C      tau(  10) = (   0.5009290  -0.0004477   0.8020095  )
        11        C      tau(  11) = (   0.6250001   0.2167356   0.7988573  )
        12        C      tau(  12) = (   0.7490808   0.1447866   0.8443828  )
        13        C      tau(  13) = (   0.5001986   0.4328980   0.7988574  )
        14        C      tau(  14) = (   0.6250000   0.3608439   0.8445339  )
        15        C      tau(  15) = (   0.3741477   0.6489383   0.8020096  )
        16        C      tau(  16) = (   0.4999292   0.5763295   0.8443828  )
        17        C      tau(  17) = (   0.7490710  -0.0004478   0.8020095  )
        18        C      tau(  18) = (   0.3720645   0.7921618   0.8501530  )
        19        C      tau(  19) = (   0.1249999   0.7936284   0.8475620  )
        20        C      tau(  20) = (   0.1250000   0.3642336   0.8501530  )
        21        C      tau(  21) = (  -0.1279380   0.2182026   0.7961848  )
        22        C      tau(  22) = (   0.3779383   0.2182027   0.7961847  )
        23        C      tau(  23) = (  -0.0000767   0.4340412   0.8020096  )
        24        C      tau(  24) = (  -0.3750000   0.6461261   0.7961848  )
        25        C      tau(  25) = (  -0.0079658  -0.0045996   0.7912974  )
        26        C      tau(  26) = (  -0.3750002   0.7846832   0.8549581  )
        27        C      tau(  27) = (  -0.1258485   0.3614155   0.8443827  )
        28        C      tau(  28) = (  -0.2501985   0.4328980   0.7988574  )
        29        C      tau(  29) = (  -0.2499293   0.5763295   0.8443827  )
        30        C      tau(  30) = (   0.2579444   0.1489244   0.8549586  )
        31        C      tau(  31) = (  -0.0079443   0.1489241   0.8549592  )
        32        C      tau(  32) = (   0.1250004   0.2257049   0.7912970  )
        33        H      tau(  33) = (  -0.0208178   0.1563566   0.9636145  )
        34        H      tau(  34) = (   0.6250000   0.3608440   0.9542578  )
        35        H      tau(  35) = (   0.1250000   0.6495191   0.6921722  )
        36        H      tau(  36) = (   0.5002435   0.4328721   0.6893648  )
        37        H      tau(  37) = (  -0.1261162   0.2171508   0.6870208  )
        38        H      tau(  38) = (   0.7503294   0.1466212   0.9540997  )
        39        H      tau(  39) = (   0.5021423   0.5764935   0.9540997  )
        40        H      tau(  40) = (   0.7502773  -0.0022809   0.6922932  )
        41        H      tau(  41) = (  -0.1268131   0.3594169   0.9540996  )
        42        H      tau(  42) = (  -0.0208678  -0.0120486   0.6826501  )
        43        H      tau(  43) = (   0.1249999   0.7935917   0.9570475  )
        44        H      tau(  44) = (   0.3731632   0.6508996   0.6922933  )
        45        H      tau(  45) = (   0.6250000   0.2167875   0.6893649  )
        46        H      tau(  46) = (   0.1250005   0.2406031   0.6826499  )
        47        H      tau(  47) = (   0.2478860   0.4339132   0.6922932  )
        48        H      tau(  48) = (   0.1250000   0.3620985   0.9593112  )
        49        H      tau(  49) = (   0.2708175   0.1563569   0.9636140  )
        50        H      tau(  50) = (   0.2708678  -0.0120482   0.6826500  )
        51        H      tau(  51) = (   0.0021141   0.4339131   0.6922932  )
        52        H      tau(  52) = (   0.0002295   0.5774828   0.9570476  )
        53        H      tau(  53) = (  -0.1231633   0.6508997   0.6922932  )
        54        H      tau(  54) = (  -0.1239139   0.7932297   0.9593112  )
        55        H      tau(  55) = (   0.3739136   0.7932295   0.9593113  )
        56        H      tau(  56) = (  -0.3750002   0.7698188   0.9636136  )
        57        H      tau(  57) = (   0.4997227  -0.0022809   0.6922931  )
        58        H      tau(  58) = (   0.4996707   0.1466213   0.9540996  )
        59        H      tau(  59) = (  -0.3750000   0.6482295   0.6870206  )
        60        H      tau(  60) = (   0.3761165   0.2171509   0.6870206  )
        61        H      tau(  61) = (   0.3768131   0.3594170   0.9540996  )
        62        H      tau(  62) = (  -0.2521425   0.5764936   0.9540997  )
        63        H      tau(  63) = (  -0.2502434   0.4328721   0.6893649  )
        64        H      tau(  64) = (   0.2497704   0.5774829   0.9570476  )
        65        La     tau(  65) = (   0.1249998   0.0721693   0.8230830  )

     number of k points=     1  Methfessel-Paxton smearing, width (Ry)=  0.0100
                       cart. coord. in units 2pi/alat
        k(    1) = (   0.0000000   0.0000000   0.0000000), wk =   2.0000000

     Dense  grid:   410757 G-vectors     FFT dimensions: (  96,  96, 135)

     Smooth grid:   223959 G-vectors     FFT dimensions: (  72,  72, 120)

     Estimated max dynamical RAM per process >       4.35 GB

 %%%%%%%%%%%%%%%%%%%%%%%%%%%%%%%%%%%%%%%%%%%%%%%%%%%%%%%%%%%%%%%%%%%%%%%%%%%%%%
     Error in routine  ylmr2 (15):
     l too large, or wrong number of Ylm required
 %%%%%%%%%%%%%%%%%%%%%%%%%%%%%%%%%%%%%%%%%%%%%%%%%%%%%%%%%%%%%%%%%%%%%%%%%%%%%%

     stopping ...
--------------------------------------------------------------------------
MPI_ABORT was invoked on rank 0 in communicator MPI_COMM_WORLD
with errorcode 15.

NOTE: invoking MPI_ABORT causes Open MPI to kill all MPI processes.
You may or may not see output from other processes, depending on
exactly when Open MPI kills them.
--------------------------------------------------------------------------
