--------------------------------------------------------------------------
WARNING: Open MPI tried to bind a process but failed.  This is a
warning only; your job will continue, though performance may
be degraded.

  Local host:        3253031b5b37
  Application name:  /root/qe-7.3.1/bin/pw.x
  Error message:     failed to bind memory
  Location:          ../../../../../orte/mca/rtc/hwloc/rtc_hwloc.c:447

--------------------------------------------------------------------------

     Program PWSCF v.7.3.1 starts on  7May2026 at  4:36: 3 

     This program is part of the open-source Quantum ESPRESSO suite
     for quantum simulation of materials; please cite
         "P. Giannozzi et al., J. Phys.:Condens. Matter 21 395502 (2009);
         "P. Giannozzi et al., J. Phys.:Condens. Matter 29 465901 (2017);
         "P. Giannozzi et al., J. Chem. Phys. 152 154105 (2020);
          URL http://www.quantum-espresso.org", 
     in publications or presentations arising from this work. More details at
     http://www.quantum-espresso.org/quote

     Parallel version (MPI & OpenMP), running on       8 processor cores
     Number of MPI processes:                 1
     Threads/MPI process:                     8

     MPI processes distributed on     1 nodes
     89989 MiB available memory on the printing compute node when the environment starts
 
     Reading input from cand266_A_TaS2_La.in

     Current dimensions of program PWSCF are:
     Max number of different atomic species (ntypx) = 10
     Max number of k-points (npk) =  40000
     Max angular momentum in pseudopotentials (lmaxx) =  4
     file La.UPF: wavefunction(s)  5S 5D 4F renormalized
     file S.UPF: wavefunction(s)  3S 3P renormalized
     file Ta.UPF: wavefunction(s)  6S 5P 5D renormalized
 
     Subspace diagonalization in iterative solution of the eigenvalue problem:
     a serial algorithm will be used

 
     G-vector sticks info
     --------------------
     sticks:   dense  smooth     PW     G-vecs:    dense   smooth      PW
     Sum        4543    3049    757               443143   241367   30179
 
     Using Slab Decomposition
 


     bravais-lattice index     =            0
     lattice parameter (alat)  =      19.1703  a.u.
     unit-cell volume          =   10861.2256 (a.u.)^3
     number of atoms/cell      =           28
     number of atomic types    =            3
     number of electrons       =       236.00
     number of Kohn-Sham states=          142
     kinetic-energy cutoff     =      30.0000  Ry
     charge density cutoff     =     180.0000  Ry
     scf convergence threshold =      1.0E-07
     mixing beta               =       0.4000
     number of iterations used =            8  plain     mixing
     Exchange-correlation= SLA  PW   PBX  PBC
                           (   1   4   3   4   0   0   0)

     GPU acceleration is ACTIVE.  1 visible GPUs per MPI rank


     celldm(1)=  19.170297  celldm(2)=   0.000000  celldm(3)=   0.000000
     celldm(4)=   0.000000  celldm(5)=   0.000000  celldm(6)=   0.000000

     crystal axes: (cart. coord. in units of alat)
               a(1) = (   1.000000   0.000000   0.000000 )  
               a(2) = (  -0.500000   0.866025   0.000000 )  
               a(3) = (   0.000000   0.000000   1.780171 )  

     reciprocal axes: (cart. coord. in units 2 pi/alat)
               b(1) = (  1.000000  0.577350 -0.000000 )  
               b(2) = (  0.000000  1.154701  0.000000 )  
               b(3) = (  0.000000 -0.000000  0.561744 )  


     PseudoPot. # 1 for La read from file:
     /root/qe_pseudos/La.UPF
     MD5 check sum: 6e6ac421535d279511fd22156ed99225
     Pseudo is Projector augmented-wave + core cor, Zval = 11.0
     Generated using &quot;atomic&quot; code by A. Dal Corso  v.6.2.2
     Shape of augmentation charge: PSQ
     Using radial grid of 1253 points,  8 beta functions with: 
                l(1) =   0
                l(2) =   0
                l(3) =   1
                l(4) =   1
                l(5) =   2
                l(6) =   2
                l(7) =   3
                l(8) =   3
     Q(r) pseudized with 0 coefficients 


     PseudoPot. # 2 for S  read from file:
     /root/qe_pseudos/S.UPF
     MD5 check sum: fb45dfebcf3e72a4e1bd4a866ec2e262
     Pseudo is Projector augmented-wave + core cor, Zval =  6.0
     Generated using &quot;atomic&quot; code by A. Dal Corso  v.6.3
     Shape of augmentation charge: PSQ
     Using radial grid of 1151 points,  6 beta functions with: 
                l(1) =   0
                l(2) =   0
                l(3) =   1
                l(4) =   1
                l(5) =   2
                l(6) =   2
     Q(r) pseudized with 0 coefficients 


     PseudoPot. # 3 for Ta read from file:
     /root/qe_pseudos/Ta.UPF
     MD5 check sum: 70e26a4a8c1f0430003df9f0e8af0a92
     Pseudo is Projector augmented-wave + core cor, Zval = 13.0
     Generated using &quot;atomic&quot; code by A. Dal Corso  v.6.3
     Shape of augmentation charge: PSQ
     Using radial grid of 1273 points,  6 beta functions with: 
                l(1) =   0
                l(2) =   0
                l(3) =   1
                l(4) =   1
                l(5) =   2
                l(6) =   2
     Q(r) pseudized with 0 coefficients 


     atomic species   valence    mass     pseudopotential
     La               11.00   138.90550     La( 1.00)
     S                 6.00    32.06000     S ( 1.00)
     Ta               13.00   180.94790     Ta( 1.00)

     No symmetry found



   Cartesian axes

     site n.     atom                  positions (alat units)
         1        S      tau(   1) = (   0.3321997   0.3853288   1.0428311  )
         2        S      tau(   2) = (   0.0028054   0.7691003   0.7368459  )
         3        S      tau(   3) = (   0.1660911   0.6739036   1.0438238  )
         4        S      tau(   4) = (   0.1694021   0.4827379   0.7354352  )
         5        S      tau(   5) = (   0.3317512   0.7670396   0.7349148  )
         6        S      tau(   6) = (   0.6607110   0.3857415   1.0393085  )
         7        S      tau(   7) = (   0.3278303   0.1876403   0.7411619  )
         8        S      tau(   8) = (   0.4997995   0.0936325   1.0430568  )
         9        S      tau(   9) = (   0.6655998   0.1917631   0.7388227  )
        10        S      tau(  10) = (   0.5002369   0.4776246   0.7403554  )
        11        S      tau(  11) = (  -0.1675562   0.6684203   1.0420807  )
        12        S      tau(  12) = (  -0.1658116   0.4849096   0.7390631  )
        13        S      tau(  13) = (  -0.0024776   0.3830059   1.0422072  )
        14        S      tau(  14) = (   0.5010981   0.6762324   1.0420951  )
        15        S      tau(  15) = (  -0.0009299   0.1947164   0.7398935  )
        16        S      tau(  16) = (   0.1676639   0.0963546   1.0299602  )
        17        S      tau(  17) = (  -0.3372853   0.7688734   0.7395502  )
        18        S      tau(  18) = (   0.8332850   0.0996451   1.0427494  )
        19        Ta     tau(  19) = (   0.3270758   0.5792546   0.8928593  )
        20        Ta     tau(  20) = (   0.5059271   0.2925643   0.8883415  )
        21        Ta     tau(  21) = (  -0.0113997  -0.0094592   0.8880745  )
        22        Ta     tau(  22) = (   0.0014599   0.5786903   0.8904788  )
        23        Ta     tau(  23) = (   0.1681561   0.3013603   0.8894637  )
        24        Ta     tau(  24) = (   0.3462591   0.0004086   0.8897175  )
        25        Ta     tau(  25) = (  -0.3285346   0.5806265   0.8876684  )
        26        Ta     tau(  26) = (  -0.1609996   0.2835479   0.8875367  )
        27        Ta     tau(  27) = (   0.6677215  -0.0016278   0.8910623  )
        28        La     tau(  28) = (   0.1665877   0.0964945   1.3006356  )

     number of k points=     1  Methfessel-Paxton smearing, width (Ry)=  0.0100
                       cart. coord. in units 2pi/alat
        k(    1) = (   0.0000000   0.0000000   0.0000000), wk =   2.0000000

     Dense  grid:   443143 G-vectors     FFT dimensions: (  81,  81, 150)

     Smooth grid:   241367 G-vectors     FFT dimensions: (  72,  72, 120)

     Estimated max dynamical RAM per process >       4.59 GB

 %%%%%%%%%%%%%%%%%%%%%%%%%%%%%%%%%%%%%%%%%%%%%%%%%%%%%%%%%%%%%%%%%%%%%%%%%%%%%%
     Error in routine  ylmr2 (15):
     l too large, or wrong number of Ylm required
 %%%%%%%%%%%%%%%%%%%%%%%%%%%%%%%%%%%%%%%%%%%%%%%%%%%%%%%%%%%%%%%%%%%%%%%%%%%%%%

     stopping ...
--------------------------------------------------------------------------
MPI_ABORT was invoked on rank 0 in communicator MPI_COMM_WORLD
with errorcode 15.

NOTE: invoking MPI_ABORT causes Open MPI to kill all MPI processes.
You may or may not see output from other processes, depending on
exactly when Open MPI kills them.
--------------------------------------------------------------------------
