--------------------------------------------------------------------------
WARNING: Open MPI tried to bind a process but failed.  This is a
warning only; your job will continue, though performance may
be degraded.

  Local host:        3253031b5b37
  Application name:  /root/qe-7.3.1/bin/pw.x
  Error message:     failed to bind memory
  Location:          ../../../../../orte/mca/rtc/hwloc/rtc_hwloc.c:447

--------------------------------------------------------------------------

     Program PWSCF v.7.3.1 starts on  7May2026 at  2: 5:19 

     This program is part of the open-source Quantum ESPRESSO suite
     for quantum simulation of materials; please cite
         "P. Giannozzi et al., J. Phys.:Condens. Matter 21 395502 (2009);
         "P. Giannozzi et al., J. Phys.:Condens. Matter 29 465901 (2017);
         "P. Giannozzi et al., J. Chem. Phys. 152 154105 (2020);
          URL http://www.quantum-espresso.org", 
     in publications or presentations arising from this work. More details at
     http://www.quantum-espresso.org/quote

     Parallel version (MPI & OpenMP), running on       8 processor cores
     Number of MPI processes:                 1
     Threads/MPI process:                     8

     MPI processes distributed on     1 nodes
     91786 MiB available memory on the printing compute node when the environment starts
 
     Reading input from cand189_B_Hf2Te6_La.in

     Current dimensions of program PWSCF are:
     Max number of different atomic species (ntypx) = 10
     Max number of k-points (npk) =  40000
     Max angular momentum in pseudopotentials (lmaxx) =  4
     file Hf.UPF: wavefunction(s)  5P renormalized
     file La.UPF: wavefunction(s)  5S 5D 4F renormalized
     file Te.UPF: wavefunction(s)  5S 5P renormalized
 
     Subspace diagonalization in iterative solution of the eigenvalue problem:
     a serial algorithm will be used

 
     G-vector sticks info
     --------------------
     sticks:   dense  smooth     PW     G-vecs:    dense   smooth      PW
     Sum       10803    7181   1805              1272235   692337   86517
 
     Using Slab Decomposition
 


     bravais-lattice index     =            0
     lattice parameter (alat)  =      33.7579  a.u.
     unit-cell volume          =   31193.8487 (a.u.)^3
     number of atoms/cell      =           73
     number of atomic types    =            3
     number of electrons       =       551.00
     number of Kohn-Sham states=          331
     kinetic-energy cutoff     =      30.0000  Ry
     charge density cutoff     =     180.0000  Ry
     scf convergence threshold =      1.0E-07
     mixing beta               =       0.4000
     number of iterations used =            8  plain     mixing
     Exchange-correlation= SLA  PW   PBX  PBC
                           (   1   4   3   4   0   0   0)

     GPU acceleration is ACTIVE.  1 visible GPUs per MPI rank


     celldm(1)=  33.757942  celldm(2)=   0.000000  celldm(3)=   0.000000
     celldm(4)=   0.000000  celldm(5)=   0.000000  celldm(6)=   0.000000

     crystal axes: (cart. coord. in units of alat)
               a(1) = (   1.000000   0.000000   0.000000 )  
               a(2) = (   0.000000   0.661459   0.000000 )  
               a(3) = (   0.000000   0.000000   1.225852 )  

     reciprocal axes: (cart. coord. in units 2 pi/alat)
               b(1) = (  1.000000  0.000000  0.000000 )  
               b(2) = (  0.000000  1.511810  0.000000 )  
               b(3) = (  0.000000  0.000000  0.815759 )  


     PseudoPot. # 1 for Hf read from file:
     /root/qe_pseudos/Hf.UPF
     MD5 check sum: bf8a91e620b6303fe4cf956cf37905ef
     Pseudo is Projector augmented-wave + core cor, Zval = 12.0
     Generated using &quot;atomic&quot; code by A. Dal Corso  v.6.2.2
     Shape of augmentation charge: PSQ
     Using radial grid of 1271 points,  6 beta functions with: 
                l(1) =   0
                l(2) =   0
                l(3) =   1
                l(4) =   1
                l(5) =   2
                l(6) =   2
     Q(r) pseudized with 0 coefficients 


     PseudoPot. # 2 for La read from file:
     /root/qe_pseudos/La.UPF
     MD5 check sum: 6e6ac421535d279511fd22156ed99225
     Pseudo is Projector augmented-wave + core cor, Zval = 11.0
     Generated using &quot;atomic&quot; code by A. Dal Corso  v.6.2.2
     Shape of augmentation charge: PSQ
     Using radial grid of 1253 points,  8 beta functions with: 
                l(1) =   0
                l(2) =   0
                l(3) =   1
                l(4) =   1
                l(5) =   2
                l(6) =   2
                l(7) =   3
                l(8) =   3
     Q(r) pseudized with 0 coefficients 


     PseudoPot. # 3 for Te read from file:
     /root/qe_pseudos/Te.UPF
     MD5 check sum: 66247bff2bd9dbf220fbb0bf5ab56e9d
     Pseudo is Projector augmented-wave + core cor, Zval =  6.0
     Generated using &quot;atomic&quot; code by A. Dal Corso  v.6.3
     Shape of augmentation charge: PSQ
     Using radial grid of 1245 points,  6 beta functions with: 
                l(1) =   0
                l(2) =   0
                l(3) =   1
                l(4) =   1
                l(5) =   2
                l(6) =   2
     Q(r) pseudized with 0 coefficients 


     atomic species   valence    mass     pseudopotential
     Hf               12.00   178.49000     Hf( 1.00)
     La               11.00   138.90550     La( 1.00)
     Te                6.00   127.60000     Te( 1.00)

     No symmetry found



   Cartesian axes

     site n.     atom                  positions (alat units)
         1        Hf     tau(   1) = (   0.7103596   0.6062691   0.5190248  )
         2        Hf     tau(   2) = (   0.8772213   0.4962432   0.7067679  )
         3        Hf     tau(   3) = (   0.7103707   0.3856060   0.5190288  )
         4        Hf     tau(   4) = (   0.8778450   0.2750567   0.7073815  )
         5        Hf     tau(   5) = (   0.7104407   0.1652073   0.5191080  )
         6        Hf     tau(   6) = (   0.8778865   0.0559545   0.7073959  )
         7        Hf     tau(   7) = (   0.3771095   0.6062965   0.5195998  )
         8        Hf     tau(   8) = (   0.5438239   0.4961908   0.7067180  )
         9        Hf     tau(   9) = (   0.3771160   0.3856019   0.5196031  )
        10        Hf     tau(  10) = (   0.5442925   0.2754359   0.7069468  )
        11        Hf     tau(  11) = (   0.3770252   0.1652090   0.5193757  )
        12        Hf     tau(  12) = (   0.5442962   0.0554841   0.7069856  )
        13        Hf     tau(  13) = (   0.0436668   0.6061278   0.5190054  )
        14        Hf     tau(  14) = (   0.2106657   0.4962201   0.7067848  )
        15        Hf     tau(  15) = (   0.2100168   0.0537083   0.7072183  )
        16        Hf     tau(  16) = (   0.2099720   0.2772563   0.7072270  )
        17        Hf     tau(  17) = (   0.0438652   0.1651947   0.5193594  )
        18        Hf     tau(  18) = (   0.0436825   0.3857942   0.5189936  )
        19        Te     tau(  19) = (   0.9649113   0.2756056   0.4238099  )
        20        Te     tau(  20) = (   0.6230848   0.6062762   0.8016488  )
        21        Te     tau(  21) = (   0.9649249   0.0551896   0.4237426  )
        22        Te     tau(  22) = (   0.1275057   0.1654185   0.7969194  )
        23        Te     tau(  23) = (   0.7100380   0.0553793   0.6415486  )
        24        Te     tau(  24) = (   0.8771774   0.1649899   0.5839903  )
        25        Te     tau(  25) = (   0.7896077   0.0551741   0.4240988  )
        26        Te     tau(  26) = (   0.7982968   0.1652967   0.8002692  )
        27        Te     tau(  27) = (   0.6314520   0.0551608   0.4240103  )
        28        Te     tau(  28) = (   0.9588567   0.1653715   0.8013262  )
        29        Te     tau(  29) = (   0.1230813   0.0552525   0.4243188  )
        30        Te     tau(  30) = (   0.2113176   0.1650680   0.5856398  )
        31        Te     tau(  31) = (   0.7100181   0.2759715   0.6415086  )
        32        Te     tau(  32) = (   0.8769648   0.3852643   0.5843751  )
        33        Te     tau(  33) = (   0.7896108   0.2756655   0.4240944  )
        34        Te     tau(  34) = (   0.7983658   0.3855580   0.8020067  )
        35        Te     tau(  35) = (   0.6314589   0.2756421   0.4239890  )
        36        Te     tau(  36) = (   0.9564948   0.3859305   0.8016174  )
        37        Te     tau(  37) = (   0.0434935   0.0550976   0.6412732  )
        38        Te     tau(  38) = (   0.7101543   0.4964333   0.6417166  )
        39        Te     tau(  39) = (   0.8769823   0.6063807   0.5844199  )
        40        Te     tau(  40) = (   0.7897242   0.4961269   0.4246276  )
        41        Te     tau(  41) = (   0.7983803   0.6064781   0.8020691  )
        42        Te     tau(  42) = (   0.6313296   0.4961115   0.4241888  )
        43        Te     tau(  43) = (   0.2980089   0.4962040   0.4250233  )
        44        Te     tau(  44) = (   0.4649266   0.6063628   0.8019715  )
        45        Te     tau(  45) = (   0.4562145   0.4961022   0.4242974  )
        46        Te     tau(  46) = (   0.5435535   0.6060924   0.5842681  )
        47        Te     tau(  47) = (   0.1312926   0.3863024   0.8024603  )
        48        Te     tau(  48) = (   0.0433571   0.4963567   0.6414873  )
        49        Te     tau(  49) = (   0.2096590   0.6061159   0.5845305  )
        50        Te     tau(  50) = (   0.1230385   0.4961186   0.4238553  )
        51        Te     tau(  51) = (   0.1312807   0.6058618   0.8024875  )
        52        Te     tau(  52) = (   0.9648703   0.4961267   0.4236766  )
        53        Te     tau(  53) = (   0.2894086   0.6061792   0.8024915  )
        54        Te     tau(  54) = (   0.1231081   0.2755362   0.4243672  )
        55        Te     tau(  55) = (   0.2096761   0.3856152   0.5844901  )
        56        Te     tau(  56) = (   0.3768243   0.0555319   0.6427005  )
        57        Te     tau(  57) = (   0.5435379   0.1651669   0.5841936  )
        58        Te     tau(  58) = (   0.2894441   0.3858550   0.8025078  )
        59        Te     tau(  59) = (   0.4561083   0.0551385   0.4241352  )
        60        Te     tau(  60) = (   0.2979546   0.0551538   0.4245441  )
        61        Te     tau(  61) = (   0.6246567   0.1653069   0.8005948  )
        62        Te     tau(  62) = (   0.0435332   0.2761144   0.6412990  )
        63        Te     tau(  63) = (   0.3769390   0.2756481   0.6426591  )
        64        Te     tau(  64) = (   0.5435203   0.3856767   0.5842199  )
        65        Te     tau(  65) = (   0.9564932   0.6062525   0.8016085  )
        66        Te     tau(  66) = (   0.4649320   0.3856705   0.8019649  )
        67        Te     tau(  67) = (   0.2979714   0.2757624   0.4245403  )
        68        Te     tau(  68) = (   0.6230904   0.3858402   0.8016466  )
        69        Te     tau(  69) = (   0.2921422   0.1653049   0.8080648  )
        70        Te     tau(  70) = (   0.3769099   0.4963928   0.6418516  )
        71        Te     tau(  71) = (   0.4672653   0.1653136   0.8033576  )
        72        Te     tau(  72) = (   0.4561255   0.2756138   0.4241713  )
        73        La     tau(  73) = (   0.2973392   0.1654702   0.9389728  )

     number of k points=     1  Methfessel-Paxton smearing, width (Ry)=  0.0100
                       cart. coord. in units 2pi/alat
        k(    1) = (   0.0000000   0.0000000   0.0000000), wk =   2.0000000

     Dense  grid:  1272235 G-vectors     FFT dimensions: ( 150,  96, 180)

     Smooth grid:   692337 G-vectors     FFT dimensions: ( 120,  80, 150)

     Estimated max dynamical RAM per process >      16.47 GB

 %%%%%%%%%%%%%%%%%%%%%%%%%%%%%%%%%%%%%%%%%%%%%%%%%%%%%%%%%%%%%%%%%%%%%%%%%%%%%%
     Error in routine  ylmr2 (15):
     l too large, or wrong number of Ylm required
 %%%%%%%%%%%%%%%%%%%%%%%%%%%%%%%%%%%%%%%%%%%%%%%%%%%%%%%%%%%%%%%%%%%%%%%%%%%%%%

     stopping ...
--------------------------------------------------------------------------
MPI_ABORT was invoked on rank 0 in communicator MPI_COMM_WORLD
with errorcode 15.

NOTE: invoking MPI_ABORT causes Open MPI to kill all MPI processes.
You may or may not see output from other processes, depending on
exactly when Open MPI kills them.
--------------------------------------------------------------------------
