--------------------------------------------------------------------------
WARNING: Open MPI tried to bind a process but failed.  This is a
warning only; your job will continue, though performance may
be degraded.

  Local host:        3253031b5b37
  Application name:  /root/qe-7.3.1/bin/pw.x
  Error message:     failed to bind memory
  Location:          ../../../../../orte/mca/rtc/hwloc/rtc_hwloc.c:447

--------------------------------------------------------------------------

     Program PWSCF v.7.3.1 starts on  7May2026 at  2: 4:30 

     This program is part of the open-source Quantum ESPRESSO suite
     for quantum simulation of materials; please cite
         "P. Giannozzi et al., J. Phys.:Condens. Matter 21 395502 (2009);
         "P. Giannozzi et al., J. Phys.:Condens. Matter 29 465901 (2017);
         "P. Giannozzi et al., J. Chem. Phys. 152 154105 (2020);
          URL http://www.quantum-espresso.org", 
     in publications or presentations arising from this work. More details at
     http://www.quantum-espresso.org/quote

     Parallel version (MPI & OpenMP), running on       8 processor cores
     Number of MPI processes:                 1
     Threads/MPI process:                     8

     MPI processes distributed on     1 nodes
     91738 MiB available memory on the printing compute node when the environment starts
 
     Reading input from cand013_B_MoTe2_La.in

     Current dimensions of program PWSCF are:
     Max number of different atomic species (ntypx) = 10
     Max number of k-points (npk) =  40000
     Max angular momentum in pseudopotentials (lmaxx) =  4
     file La.UPF: wavefunction(s)  5S 5D 4F renormalized
     file Mo.UPF: wavefunction(s)  4S 4D renormalized
     file Te.UPF: wavefunction(s)  5S 5P renormalized
 
     Subspace diagonalization in iterative solution of the eigenvalue problem:
     a serial algorithm will be used

 
     G-vector sticks info
     --------------------
     sticks:   dense  smooth     PW     G-vecs:    dense   smooth      PW
     Sum        5005    3343    847               502279   273345   34231
 
     Using Slab Decomposition
 


     bravais-lattice index     =            0
     lattice parameter (alat)  =      20.1108  a.u.
     unit-cell volume          =   12317.9723 (a.u.)^3
     number of atoms/cell      =           28
     number of atomic types    =            3
     number of electrons       =       245.00
     number of Kohn-Sham states=          148
     kinetic-energy cutoff     =      30.0000  Ry
     charge density cutoff     =     180.0000  Ry
     scf convergence threshold =      1.0E-07
     mixing beta               =       0.4000
     number of iterations used =            8  plain     mixing
     Exchange-correlation= SLA  PW   PBX  PBC
                           (   1   4   3   4   0   0   0)

     GPU acceleration is ACTIVE.  1 visible GPUs per MPI rank


     celldm(1)=  20.110799  celldm(2)=   0.000000  celldm(3)=   0.000000
     celldm(4)=   0.000000  celldm(5)=   0.000000  celldm(6)=   0.000000

     crystal axes: (cart. coord. in units of alat)
               a(1) = (   1.000000   0.000000   0.000000 )  
               a(2) = (  -0.500000   0.866025   0.000000 )  
               a(3) = (   0.000000   0.000000   1.748721 )  

     reciprocal axes: (cart. coord. in units 2 pi/alat)
               b(1) = (  1.000000  0.577350 -0.000000 )  
               b(2) = (  0.000000  1.154701  0.000000 )  
               b(3) = (  0.000000 -0.000000  0.571846 )  


     PseudoPot. # 1 for La read from file:
     /root/qe_pseudos/La.UPF
     MD5 check sum: 6e6ac421535d279511fd22156ed99225
     Pseudo is Projector augmented-wave + core cor, Zval = 11.0
     Generated using &quot;atomic&quot; code by A. Dal Corso  v.6.2.2
     Shape of augmentation charge: PSQ
     Using radial grid of 1253 points,  8 beta functions with: 
                l(1) =   0
                l(2) =   0
                l(3) =   1
                l(4) =   1
                l(5) =   2
                l(6) =   2
                l(7) =   3
                l(8) =   3
     Q(r) pseudized with 0 coefficients 


     PseudoPot. # 2 for Mo read from file:
     /root/qe_pseudos/Mo.UPF
     MD5 check sum: 4396e0c640fcce5c25f020efccf1ab12
     Pseudo is Projector augmented-wave + core cor, Zval = 14.0
     Generated using &quot;atomic&quot; code by A. Dal Corso  v.6.3
     Shape of augmentation charge: PSQ
     Using radial grid of 1229 points,  6 beta functions with: 
                l(1) =   0
                l(2) =   0
                l(3) =   1
                l(4) =   1
                l(5) =   2
                l(6) =   2
     Q(r) pseudized with 0 coefficients 


     PseudoPot. # 3 for Te read from file:
     /root/qe_pseudos/Te.UPF
     MD5 check sum: 66247bff2bd9dbf220fbb0bf5ab56e9d
     Pseudo is Projector augmented-wave + core cor, Zval =  6.0
     Generated using &quot;atomic&quot; code by A. Dal Corso  v.6.3
     Shape of augmentation charge: PSQ
     Using radial grid of 1245 points,  6 beta functions with: 
                l(1) =   0
                l(2) =   0
                l(3) =   1
                l(4) =   1
                l(5) =   2
                l(6) =   2
     Q(r) pseudized with 0 coefficients 


     atomic species   valence    mass     pseudopotential
     La               11.00   138.90550     La( 1.00)
     Mo               14.00    95.95000     Mo( 1.00)
     Te                6.00   127.60000     Te( 1.00)

     No symmetry found



   Cartesian axes

     site n.     atom                  positions (alat units)
         1        Mo     tau(   1) = (   0.0009209   0.0000671   0.8720883  )
         2        Mo     tau(   2) = (   0.3335708   0.5783311   0.8720742  )
         3        Mo     tau(   3) = (  -0.1658549   0.2901943   0.8726041  )
         4        Mo     tau(   4) = (  -0.3330142   0.5791594   0.8706561  )
         5        Mo     tau(   5) = (   0.4988441   0.2873332   0.8705396  )
         6        Mo     tau(   6) = (   0.3336253  -0.0001520   0.8704182  )
         7        Mo     tau(   7) = (   0.6658698   0.0005584   0.8717750  )
         8        Mo     tau(   8) = (   0.1670222   0.2887969   0.8702656  )
         9        Mo     tau(   9) = (  -0.0001582   0.5782470   0.8702398  )
        10        Te     tau(  10) = (   0.5005808   0.6738388   1.0412607  )
        11        Te     tau(  11) = (   0.6665622   0.3849840   0.7037089  )
        12        Te     tau(  12) = (   0.6655472   0.3856316   1.0392569  )
        13        Te     tau(  13) = (   0.8340190   0.0968997   0.7037716  )
        14        Te     tau(  14) = (   0.8335790   0.0983010   1.0410822  )
        15        Te     tau(  15) = (   0.1670531   0.6744193   0.7020778  )
        16        Te     tau(  16) = (   0.1659815   0.6739044   1.0409208  )
        17        Te     tau(  17) = (   0.3331021   0.3847553   1.0402970  )
        18        Te     tau(  18) = (   0.4998720   0.6748652   0.7020746  )
        19        Te     tau(  19) = (   0.5002004   0.0957136   0.7012814  )
        20        Te     tau(  20) = (   0.4985826   0.0955425   1.0409723  )
        21        Te     tau(  21) = (  -0.1665546   0.6740204   0.7012939  )
        22        Te     tau(  22) = (  -0.1660770   0.6743270   1.0409354  )
        23        Te     tau(  23) = (  -0.0003583   0.3850724   0.7019822  )
        24        Te     tau(  24) = (   0.0016235   0.3861400   1.0400489  )
        25        Te     tau(  25) = (   0.1666338   0.0964114   0.7020665  )
        26        Te     tau(  26) = (   0.1677827   0.0963634   1.0406792  )
        27        Te     tau(  27) = (   0.3334051   0.3860275   0.7017509  )
        28        La     tau(  28) = (  -0.1690273   0.2752019   1.3041273  )

     number of k points=     1  Methfessel-Paxton smearing, width (Ry)=  0.0100
                       cart. coord. in units 2pi/alat
        k(    1) = (   0.0000000   0.0000000   0.0000000), wk =   2.0000000

     Dense  grid:   502279 G-vectors     FFT dimensions: (  90,  90, 160)

     Smooth grid:   273345 G-vectors     FFT dimensions: (  72,  72, 125)

     Estimated max dynamical RAM per process >       5.21 GB

 %%%%%%%%%%%%%%%%%%%%%%%%%%%%%%%%%%%%%%%%%%%%%%%%%%%%%%%%%%%%%%%%%%%%%%%%%%%%%%
     Error in routine  ylmr2 (15):
     l too large, or wrong number of Ylm required
 %%%%%%%%%%%%%%%%%%%%%%%%%%%%%%%%%%%%%%%%%%%%%%%%%%%%%%%%%%%%%%%%%%%%%%%%%%%%%%

     stopping ...
--------------------------------------------------------------------------
MPI_ABORT was invoked on rank 0 in communicator MPI_COMM_WORLD
with errorcode 15.

NOTE: invoking MPI_ABORT causes Open MPI to kill all MPI processes.
You may or may not see output from other processes, depending on
exactly when Open MPI kills them.
--------------------------------------------------------------------------
