--------------------------------------------------------------------------
WARNING: Open MPI tried to bind a process but failed.  This is a
warning only; your job will continue, though performance may
be degraded.

  Local host:        3253031b5b37
  Application name:  /root/qe-7.3.1/bin/pw.x
  Error message:     failed to bind memory
  Location:          ../../../../../orte/mca/rtc/hwloc/rtc_hwloc.c:447

--------------------------------------------------------------------------

     Program PWSCF v.7.3.1 starts on  7May2026 at  2: 4:52 

     This program is part of the open-source Quantum ESPRESSO suite
     for quantum simulation of materials; please cite
         "P. Giannozzi et al., J. Phys.:Condens. Matter 21 395502 (2009);
         "P. Giannozzi et al., J. Phys.:Condens. Matter 29 465901 (2017);
         "P. Giannozzi et al., J. Chem. Phys. 152 154105 (2020);
          URL http://www.quantum-espresso.org", 
     in publications or presentations arising from this work. More details at
     http://www.quantum-espresso.org/quote

     Parallel version (MPI & OpenMP), running on       8 processor cores
     Number of MPI processes:                 1
     Threads/MPI process:                     8

     MPI processes distributed on     1 nodes
     91788 MiB available memory on the printing compute node when the environment starts
 
     Reading input from cand033_B_Mo2CO2_La.in

     Current dimensions of program PWSCF are:
     Max number of different atomic species (ntypx) = 10
     Max number of k-points (npk) =  40000
     Max angular momentum in pseudopotentials (lmaxx) =  4
     file La.UPF: wavefunction(s)  5S 5D 4F renormalized
     file Mo.UPF: wavefunction(s)  4S 4D renormalized
 
     Subspace diagonalization in iterative solution of the eigenvalue problem:
     a serial algorithm will be used

 
     G-vector sticks info
     --------------------
     sticks:   dense  smooth     PW     G-vecs:    dense   smooth      PW
     Sum        6763    4507   1135               722649   393377   49103
 
     Using Slab Decomposition
 


     bravais-lattice index     =            0
     lattice parameter (alat)  =      23.3763  a.u.
     unit-cell volume          =   17727.8633 (a.u.)^3
     number of atoms/cell      =           81
     number of atomic types    =            4
     number of electrons       =       715.00
     number of Kohn-Sham states=          430
     kinetic-energy cutoff     =      30.0000  Ry
     charge density cutoff     =     180.0000  Ry
     scf convergence threshold =      1.0E-07
     mixing beta               =       0.4000
     number of iterations used =            8  plain     mixing
     Exchange-correlation= SLA  PW   PBX  PBC
                           (   1   4   3   4   0   0   0)

     GPU acceleration is ACTIVE.  1 visible GPUs per MPI rank


     celldm(1)=  23.376269  celldm(2)=   0.000000  celldm(3)=   0.000000
     celldm(4)=   0.000000  celldm(5)=   0.000000  celldm(6)=   0.000000

     crystal axes: (cart. coord. in units of alat)
               a(1) = (   1.000000   0.000000   0.000000 )  
               a(2) = (  -0.500000   0.866025   0.000000 )  
               a(3) = (   0.000000   0.000000   1.602508 )  

     reciprocal axes: (cart. coord. in units 2 pi/alat)
               b(1) = (  1.000000  0.577350 -0.000000 )  
               b(2) = (  0.000000  1.154701  0.000000 )  
               b(3) = (  0.000000 -0.000000  0.624022 )  


     PseudoPot. # 1 for C  read from file:
     /root/qe_pseudos/C.UPF
     MD5 check sum: 9b35a7431356f8229172919cb1fa74b8
     Pseudo is Norm-conserving, Zval =  4.0
     Generated by new atomic code, or converted to UPF format
     Using radial grid of 1073 points,  1 beta functions with: 
                l(1) =   0

     PseudoPot. # 2 for La read from file:
     /root/qe_pseudos/La.UPF
     MD5 check sum: 6e6ac421535d279511fd22156ed99225
     Pseudo is Projector augmented-wave + core cor, Zval = 11.0
     Generated using &quot;atomic&quot; code by A. Dal Corso  v.6.2.2
     Shape of augmentation charge: PSQ
     Using radial grid of 1253 points,  8 beta functions with: 
                l(1) =   0
                l(2) =   0
                l(3) =   1
                l(4) =   1
                l(5) =   2
                l(6) =   2
                l(7) =   3
                l(8) =   3
     Q(r) pseudized with 0 coefficients 


     PseudoPot. # 3 for Mo read from file:
     /root/qe_pseudos/Mo.UPF
     MD5 check sum: 4396e0c640fcce5c25f020efccf1ab12
     Pseudo is Projector augmented-wave + core cor, Zval = 14.0
     Generated using &quot;atomic&quot; code by A. Dal Corso  v.6.3
     Shape of augmentation charge: PSQ
     Using radial grid of 1229 points,  6 beta functions with: 
                l(1) =   0
                l(2) =   0
                l(3) =   1
                l(4) =   1
                l(5) =   2
                l(6) =   2
     Q(r) pseudized with 0 coefficients 


     PseudoPot. # 4 for O  read from file:
     /root/qe_pseudos/O.UPF
     MD5 check sum: c7f41d994d4e90c1781f5cd713c45011
     Pseudo is Projector augmented-wave + core cor, Zval =  6.0
     Generated using "atomic" code by A. Dal Corso (espresso distribution)
     Shape of augmentation charge: BESSEL
     Using radial grid of 1095 points,  4 beta functions with: 
                l(1) =   0
                l(2) =   0
                l(3) =   1
                l(4) =   1
     Q(r) pseudized with 0 coefficients 


     atomic species   valence    mass     pseudopotential
     C                 4.00    12.01100     C ( 1.00)
     La               11.00   138.90550     La( 1.00)
     Mo               14.00    95.95000     Mo( 1.00)
     O                 6.00    15.99900     O ( 1.00)

     No symmetry found



   Cartesian axes

     site n.     atom                  positions (alat units)
         1        C      tau(   1) = (   0.1230918   0.6509561   0.8003335  )
         2        C      tau(   2) = (  -0.3762241   0.6515983   0.8013024  )
         3        C      tau(   3) = (   0.0000345   0.4350395   0.7980741  )
         4        C      tau(   4) = (   0.3719151   0.2170024   0.8011296  )
         5        C      tau(   5) = (   0.7482435  -0.0009710   0.7980419  )
         6        C      tau(   6) = (  -0.2489241   0.4300606   0.8010590  )
         7        C      tau(   7) = (   0.2517083  -0.0010432   0.7980359  )
         8        C      tau(   8) = (   0.6274190   0.2165034   0.8013191  )
         9        C      tau(   9) = (   0.1212796   0.2144780   0.8060221  )
        10        C      tau(  10) = (  -0.1213980   0.2143730   0.8060584  )
        11        C      tau(  11) = (   0.4999886   0.4330027   0.8049716  )
        12        C      tau(  12) = (  -0.1227173   0.6504146   0.8003682  )
        13        C      tau(  13) = (   0.0001095   0.0041766   0.8061018  )
        14        C      tau(  14) = (   0.3769707   0.6519111   0.8010628  )
        15        C      tau(  15) = (   0.4996512  -0.0022490   0.8002632  )
        16        C      tau(  16) = (   0.2488367   0.4308560   0.8013054  )
        17        Mo     tau(  17) = (   0.6224639   0.0697425   0.8918337  )
        18        Mo     tau(  18) = (   0.3779866   0.3627435   0.7086429  )
        19        Mo     tau(  19) = (   0.4999218   0.2845404   0.8906623  )
        20        Mo     tau(  20) = (   0.0000794   0.7219385   0.9062060  )
        21        Mo     tau(  21) = (   0.2539181   0.5755467   0.7093056  )
        22        Mo     tau(  22) = (  -0.0000892   0.1441598   0.7070662  )
        23        Mo     tau(  23) = (   0.1244170   0.7937343   0.7083339  )
        24        Mo     tau(  24) = (   0.2477746   0.7203683   0.8918531  )
        25        Mo     tau(  25) = (   0.7516616   0.1483650   0.7089691  )
        26        Mo     tau(  26) = (   0.8657266   0.0670236   0.8884005  )
        27        Mo     tau(  27) = (   0.6218502   0.3624397   0.7086422  )
        28        Mo     tau(  28) = (   0.7530619   0.2866039   0.8963661  )
        29        Mo     tau(  29) = (   0.5002117   0.5737879   0.7086302  )
        30        Mo     tau(  30) = (   0.6286075   0.5071651   0.8906355  )
        31        Mo     tau(  31) = (   0.3793794   0.7942541   0.7087826  )
        32        Mo     tau(  32) = (   0.5002156   0.7252910   0.8963572  )
        33        Mo     tau(  33) = (   0.3714465   0.5072915   0.8906561  )
        34        Mo     tau(  34) = (  -0.1246543   0.7933050   0.7082922  )
        35        Mo     tau(  35) = (   0.4995656   0.1487537   0.7092517  )
        36        Mo     tau(  36) = (  -0.2466860   0.7206633   0.8918011  )
        37        Mo     tau(  37) = (  -0.1250923   0.5078084   0.8917868  )
        38        Mo     tau(  38) = (  -0.2534684   0.5748900   0.7093013  )
        39        Mo     tau(  39) = (   0.2474903   0.1479608   0.7087819  )
        40        Mo     tau(  40) = (   0.3772619   0.0708103   0.8918712  )
        41        Mo     tau(  41) = (   0.1276203   0.3574184   0.7089924  )
        42        Mo     tau(  42) = (   0.2466767   0.2870374   0.8963777  )
        43        Mo     tau(  43) = (  -0.1268331   0.3568556   0.7087882  )
        44        Mo     tau(  44) = (   0.0001823   0.2993511   0.8884755  )
        45        Mo     tau(  45) = (  -0.3793241   0.7933048   0.7089669  )
        46        Mo     tau(  46) = (   0.1242808   0.5086099   0.8917642  )
        47        Mo     tau(  47) = (   0.0002191   0.5778362   0.7081531  )
        48        Mo     tau(  48) = (   0.1341868   0.0668270   0.8884650  )
        49        O      tau(  49) = (  -0.2498405   0.5773243   0.9849951  )
        50        O      tau(  50) = (   0.7488444   0.1439762   0.9846490  )
        51        O      tau(  51) = (   0.8775827   0.0737860   0.6168741  )
        52        O      tau(  52) = (   0.0000976   0.2856017   0.6169956  )
        53        O      tau(  53) = (   0.6234898   0.5043077   0.6159066  )
        54        O      tau(  54) = (   0.6266491   0.3597761   0.9804745  )
        55        O      tau(  55) = (   0.7497044   0.2888184   0.6167571  )
        56        O      tau(  56) = (  -0.1254408   0.3617701   0.9846936  )
        57        O      tau(  57) = (  -0.1244387   0.5041069   0.6208366  )
        58        O      tau(  58) = (   0.0000200   0.1443695   0.9957816  )
        59        O      tau(  59) = (   0.1222973   0.0735924   0.6169444  )
        60        O      tau(  60) = (   0.5000939   0.5793158   0.9804780  )
        61        O      tau(  61) = (   0.3744051   0.7930138   0.9846997  )
        62        O      tau(  62) = (  -0.0003420   0.5764712   0.9867406  )
        63        O      tau(  63) = (   0.1260166   0.7940492   0.9869639  )
        64        O      tau(  64) = (  -0.1256676   0.7946064   0.9869360  )
        65        O      tau(  65) = (  -0.0000200   0.7216715   0.6152684  )
        66        O      tau(  66) = (   0.5000199   0.7213644   0.6167512  )
        67        O      tau(  67) = (   0.2502650   0.2888537   0.6167797  )
        68        O      tau(  68) = (   0.1253001   0.3620331   0.9846615  )
        69        O      tau(  69) = (   0.4998917   0.1441768   0.9849860  )
        70        O      tau(  70) = (   0.6256161   0.0724666   0.6208566  )
        71        O      tau(  71) = (   0.2506539   0.7227072   0.6208860  )
        72        O      tau(  72) = (   0.3737856   0.0722329   0.6209234  )
        73        O      tau(  73) = (   0.5000100   0.2904269   0.6158578  )
        74        O      tau(  74) = (   0.2510060   0.1442359   0.9847401  )
        75        O      tau(  75) = (   0.2499267   0.5775135   0.9850100  )
        76        O      tau(  76) = (   0.3765081   0.5042832   0.6159107  )
        77        O      tau(  77) = (  -0.2505579   0.7220827   0.6208023  )
        78        O      tau(  78) = (  -0.3741264   0.7930118   0.9846194  )
        79        O      tau(  79) = (   0.1249291   0.5044888   0.6207890  )
        80        O      tau(  80) = (   0.3732489   0.3599459   0.9804764  )
        81        La     tau(  81) = (   0.0000278   0.1443853   1.1295814  )

     number of k points=     1  Methfessel-Paxton smearing, width (Ry)=  0.0100
                       cart. coord. in units 2pi/alat
        k(    1) = (   0.0000000   0.0000000   0.0000000), wk =   2.0000000

     Dense  grid:   722649 G-vectors     FFT dimensions: ( 100, 100, 160)

     Smooth grid:   393377 G-vectors     FFT dimensions: (  81,  81, 135)

     Estimated max dynamical RAM per process >       8.43 GB

 %%%%%%%%%%%%%%%%%%%%%%%%%%%%%%%%%%%%%%%%%%%%%%%%%%%%%%%%%%%%%%%%%%%%%%%%%%%%%%
     Error in routine  ylmr2 (15):
     l too large, or wrong number of Ylm required
 %%%%%%%%%%%%%%%%%%%%%%%%%%%%%%%%%%%%%%%%%%%%%%%%%%%%%%%%%%%%%%%%%%%%%%%%%%%%%%

     stopping ...
--------------------------------------------------------------------------
MPI_ABORT was invoked on rank 0 in communicator MPI_COMM_WORLD
with errorcode 15.

NOTE: invoking MPI_ABORT causes Open MPI to kill all MPI processes.
You may or may not see output from other processes, depending on
exactly when Open MPI kills them.
--------------------------------------------------------------------------
