--------------------------------------------------------------------------
WARNING: Open MPI tried to bind a process but failed.  This is a
warning only; your job will continue, though performance may
be degraded.

  Local host:        3253031b5b37
  Application name:  /root/qe-7.3.1/bin/pw.x
  Error message:     failed to bind memory
  Location:          ../../../../../orte/mca/rtc/hwloc/rtc_hwloc.c:447

--------------------------------------------------------------------------

     Program PWSCF v.7.3.1 starts on  6May2026 at 12:52:32 

     This program is part of the open-source Quantum ESPRESSO suite
     for quantum simulation of materials; please cite
         "P. Giannozzi et al., J. Phys.:Condens. Matter 21 395502 (2009);
         "P. Giannozzi et al., J. Phys.:Condens. Matter 29 465901 (2017);
         "P. Giannozzi et al., J. Chem. Phys. 152 154105 (2020);
          URL http://www.quantum-espresso.org", 
     in publications or presentations arising from this work. More details at
     http://www.quantum-espresso.org/quote

     Parallel version (MPI & OpenMP), running on       8 processor cores
     Number of MPI processes:                 1
     Threads/MPI process:                     8

     MPI processes distributed on     1 nodes
     83985 MiB available memory on the printing compute node when the environment starts
 
     Reading input from cand032_B_Mo2CO2_In.in

     Current dimensions of program PWSCF are:
     Max number of different atomic species (ntypx) = 10
     Max number of k-points (npk) =  40000
     Max angular momentum in pseudopotentials (lmaxx) =  4
     file In.UPF: wavefunction(s)  5S 4D renormalized
     file Mo.UPF: wavefunction(s)  4S 4D renormalized
 
     Subspace diagonalization in iterative solution of the eigenvalue problem:
     a serial algorithm will be used

 
     G-vector sticks info
     --------------------
     sticks:   dense  smooth     PW     G-vecs:    dense   smooth      PW
     Sum        6763    4507   1135               722649   393377   49103
 
     Using Slab Decomposition
 


     bravais-lattice index     =            0
     lattice parameter (alat)  =      23.3763  a.u.
     unit-cell volume          =   17727.8633 (a.u.)^3
     number of atoms/cell      =           81
     number of atomic types    =            4
     number of electrons       =       717.00
     number of Kohn-Sham states=          431
     kinetic-energy cutoff     =      30.0000  Ry
     charge density cutoff     =     180.0000  Ry
     scf convergence threshold =      1.0E-07
     mixing beta               =       0.4000
     number of iterations used =            8  plain     mixing
     Exchange-correlation= SLA  PW   PBX  PBC
                           (   1   4   3   4   0   0   0)

     GPU acceleration is ACTIVE.  1 visible GPUs per MPI rank


     celldm(1)=  23.376269  celldm(2)=   0.000000  celldm(3)=   0.000000
     celldm(4)=   0.000000  celldm(5)=   0.000000  celldm(6)=   0.000000

     crystal axes: (cart. coord. in units of alat)
               a(1) = (   1.000000   0.000000   0.000000 )  
               a(2) = (  -0.500000   0.866025   0.000000 )  
               a(3) = (   0.000000   0.000000   1.602508 )  

     reciprocal axes: (cart. coord. in units 2 pi/alat)
               b(1) = (  1.000000  0.577350 -0.000000 )  
               b(2) = (  0.000000  1.154701  0.000000 )  
               b(3) = (  0.000000 -0.000000  0.624022 )  


     PseudoPot. # 1 for C  read from file:
     /root/qe_pseudos/C.UPF
     MD5 check sum: 9b35a7431356f8229172919cb1fa74b8
     Pseudo is Norm-conserving, Zval =  4.0
     Generated by new atomic code, or converted to UPF format
     Using radial grid of 1073 points,  1 beta functions with: 
                l(1) =   0

     PseudoPot. # 2 for In read from file:
     /root/qe_pseudos/In.UPF
     MD5 check sum: 7267d4f9f57825930b619e54710f1f3b
     Pseudo is Ultrasoft + core correction, Zval = 13.0
     Generated using &quot;atomic&quot; code by A. Dal Corso  v.6.3
     Using radial grid of 1241 points,  6 beta functions with: 
                l(1) =   0
                l(2) =   0
                l(3) =   1
                l(4) =   1
                l(5) =   2
                l(6) =   2
     Q(r) pseudized with 0 coefficients 


     PseudoPot. # 3 for Mo read from file:
     /root/qe_pseudos/Mo.UPF
     MD5 check sum: 4396e0c640fcce5c25f020efccf1ab12
     Pseudo is Projector augmented-wave + core cor, Zval = 14.0
     Generated using &quot;atomic&quot; code by A. Dal Corso  v.6.3
     Shape of augmentation charge: PSQ
     Using radial grid of 1229 points,  6 beta functions with: 
                l(1) =   0
                l(2) =   0
                l(3) =   1
                l(4) =   1
                l(5) =   2
                l(6) =   2
     Q(r) pseudized with 0 coefficients 


     PseudoPot. # 4 for O  read from file:
     /root/qe_pseudos/O.UPF
     MD5 check sum: c7f41d994d4e90c1781f5cd713c45011
     Pseudo is Projector augmented-wave + core cor, Zval =  6.0
     Generated using "atomic" code by A. Dal Corso (espresso distribution)
     Shape of augmentation charge: BESSEL
     Using radial grid of 1095 points,  4 beta functions with: 
                l(1) =   0
                l(2) =   0
                l(3) =   1
                l(4) =   1
     Q(r) pseudized with 0 coefficients 


     atomic species   valence    mass     pseudopotential
     C                 4.00    12.01100     C ( 1.00)
     In               13.00   114.81800     In( 1.00)
     Mo               14.00    95.95000     Mo( 1.00)
     O                 6.00    15.99900     O ( 1.00)

     No symmetry found



   Cartesian axes

     site n.     atom                  positions (alat units)
         1        C      tau(   1) = (   0.1230918   0.6509561   0.8003335  )
         2        C      tau(   2) = (  -0.3762241   0.6515983   0.8013024  )
         3        C      tau(   3) = (   0.0000345   0.4350395   0.7980741  )
         4        C      tau(   4) = (   0.3719151   0.2170024   0.8011296  )
         5        C      tau(   5) = (   0.7482435  -0.0009710   0.7980419  )
         6        C      tau(   6) = (  -0.2489241   0.4300606   0.8010590  )
         7        C      tau(   7) = (   0.2517083  -0.0010432   0.7980359  )
         8        C      tau(   8) = (   0.6274190   0.2165034   0.8013191  )
         9        C      tau(   9) = (   0.1212796   0.2144780   0.8060221  )
        10        C      tau(  10) = (  -0.1213980   0.2143730   0.8060584  )
        11        C      tau(  11) = (   0.4999886   0.4330027   0.8049716  )
        12        C      tau(  12) = (  -0.1227173   0.6504146   0.8003682  )
        13        C      tau(  13) = (   0.0001095   0.0041766   0.8061018  )
        14        C      tau(  14) = (   0.3769707   0.6519111   0.8010628  )
        15        C      tau(  15) = (   0.4996512  -0.0022490   0.8002632  )
        16        C      tau(  16) = (   0.2488367   0.4308560   0.8013054  )
        17        Mo     tau(  17) = (   0.6224639   0.0697425   0.8918337  )
        18        Mo     tau(  18) = (   0.3779866   0.3627435   0.7086429  )
        19        Mo     tau(  19) = (   0.4999218   0.2845404   0.8906623  )
        20        Mo     tau(  20) = (   0.0000794   0.7219385   0.9062060  )
        21        Mo     tau(  21) = (   0.2539181   0.5755467   0.7093056  )
        22        Mo     tau(  22) = (  -0.0000892   0.1441598   0.7070662  )
        23        Mo     tau(  23) = (   0.1244170   0.7937343   0.7083339  )
        24        Mo     tau(  24) = (   0.2477746   0.7203683   0.8918531  )
        25        Mo     tau(  25) = (   0.7516616   0.1483650   0.7089691  )
        26        Mo     tau(  26) = (   0.8657266   0.0670236   0.8884005  )
        27        Mo     tau(  27) = (   0.6218502   0.3624397   0.7086422  )
        28        Mo     tau(  28) = (   0.7530619   0.2866039   0.8963661  )
        29        Mo     tau(  29) = (   0.5002117   0.5737879   0.7086302  )
        30        Mo     tau(  30) = (   0.6286075   0.5071651   0.8906355  )
        31        Mo     tau(  31) = (   0.3793794   0.7942541   0.7087826  )
        32        Mo     tau(  32) = (   0.5002156   0.7252910   0.8963572  )
        33        Mo     tau(  33) = (   0.3714465   0.5072915   0.8906561  )
        34        Mo     tau(  34) = (  -0.1246543   0.7933050   0.7082922  )
        35        Mo     tau(  35) = (   0.4995656   0.1487537   0.7092517  )
        36        Mo     tau(  36) = (  -0.2466860   0.7206633   0.8918011  )
        37        Mo     tau(  37) = (  -0.1250923   0.5078084   0.8917868  )
        38        Mo     tau(  38) = (  -0.2534684   0.5748900   0.7093013  )
        39        Mo     tau(  39) = (   0.2474903   0.1479608   0.7087819  )
        40        Mo     tau(  40) = (   0.3772619   0.0708103   0.8918712  )
        41        Mo     tau(  41) = (   0.1276203   0.3574184   0.7089924  )
        42        Mo     tau(  42) = (   0.2466767   0.2870374   0.8963777  )
        43        Mo     tau(  43) = (  -0.1268331   0.3568556   0.7087882  )
        44        Mo     tau(  44) = (   0.0001823   0.2993511   0.8884755  )
        45        Mo     tau(  45) = (  -0.3793241   0.7933048   0.7089669  )
        46        Mo     tau(  46) = (   0.1242808   0.5086099   0.8917642  )
        47        Mo     tau(  47) = (   0.0002191   0.5778362   0.7081531  )
        48        Mo     tau(  48) = (   0.1341868   0.0668270   0.8884650  )
        49        O      tau(  49) = (  -0.2498405   0.5773243   0.9849951  )
        50        O      tau(  50) = (   0.7488444   0.1439762   0.9846490  )
        51        O      tau(  51) = (   0.8775827   0.0737860   0.6168741  )
        52        O      tau(  52) = (   0.0000976   0.2856017   0.6169956  )
        53        O      tau(  53) = (   0.6234898   0.5043077   0.6159066  )
        54        O      tau(  54) = (   0.6266491   0.3597761   0.9804745  )
        55        O      tau(  55) = (   0.7497044   0.2888184   0.6167571  )
        56        O      tau(  56) = (  -0.1254408   0.3617701   0.9846936  )
        57        O      tau(  57) = (  -0.1244387   0.5041069   0.6208366  )
        58        O      tau(  58) = (   0.0000200   0.1443695   0.9957816  )
        59        O      tau(  59) = (   0.1222973   0.0735924   0.6169444  )
        60        O      tau(  60) = (   0.5000939   0.5793158   0.9804780  )
        61        O      tau(  61) = (   0.3744051   0.7930138   0.9846997  )
        62        O      tau(  62) = (  -0.0003420   0.5764712   0.9867406  )
        63        O      tau(  63) = (   0.1260166   0.7940492   0.9869639  )
        64        O      tau(  64) = (  -0.1256676   0.7946064   0.9869360  )
        65        O      tau(  65) = (  -0.0000200   0.7216715   0.6152684  )
        66        O      tau(  66) = (   0.5000199   0.7213644   0.6167512  )
        67        O      tau(  67) = (   0.2502650   0.2888537   0.6167797  )
        68        O      tau(  68) = (   0.1253001   0.3620331   0.9846615  )
        69        O      tau(  69) = (   0.4998917   0.1441768   0.9849860  )
        70        O      tau(  70) = (   0.6256161   0.0724666   0.6208566  )
        71        O      tau(  71) = (   0.2506539   0.7227072   0.6208860  )
        72        O      tau(  72) = (   0.3737856   0.0722329   0.6209234  )
        73        O      tau(  73) = (   0.5000100   0.2904269   0.6158578  )
        74        O      tau(  74) = (   0.2510060   0.1442359   0.9847401  )
        75        O      tau(  75) = (   0.2499267   0.5775135   0.9850100  )
        76        O      tau(  76) = (   0.3765081   0.5042832   0.6159107  )
        77        O      tau(  77) = (  -0.2505579   0.7220827   0.6208023  )
        78        O      tau(  78) = (  -0.3741264   0.7930118   0.9846194  )
        79        O      tau(  79) = (   0.1249291   0.5044888   0.6207890  )
        80        O      tau(  80) = (   0.3732489   0.3599459   0.9804764  )
        81        In     tau(  81) = (   0.0000278   0.1443853   1.1295814  )

     number of k points=     1  Methfessel-Paxton smearing, width (Ry)=  0.0100
                       cart. coord. in units 2pi/alat
        k(    1) = (   0.0000000   0.0000000   0.0000000), wk =   2.0000000

     Dense  grid:   722649 G-vectors     FFT dimensions: ( 100, 100, 160)

     Smooth grid:   393377 G-vectors     FFT dimensions: (  81,  81, 135)

     Estimated max dynamical RAM per process >       4.44 GB

     Check: negative core charge=   -0.000004

     Initial potential from superposition of free atoms

     starting charge     708.9684, renormalised to     717.0000

     negative rho (up, down):  7.044E-02 0.000E+00
     Starting wfcs are  585 randomized atomic wfcs
     Checking if some PAW data can be deallocated... 

     total cpu time spent up to now is       29.3 secs

     Self-consistent Calculation

     iteration #  1     ecut=    30.00 Ry     beta= 0.40
     Davidson diagonalization with overlap
     ethr =  1.00E-02,  avg # of iterations =  3.0

     negative rho (up, down):  7.850E-02 0.000E+00

     total cpu time spent up to now is       49.5 secs

     total energy              =  -13285.29406020 Ry
     estimated scf accuracy    <      41.66306802 Ry

     iteration #  2     ecut=    30.00 Ry     beta= 0.40
     Davidson diagonalization with overlap
     ethr =  5.81E-03,  avg # of iterations =  4.0

     negative rho (up, down):  8.353E-02 0.000E+00

     total cpu time spent up to now is       69.6 secs

     total energy              =  -13288.74182187 Ry
     estimated scf accuracy    <      35.80255951 Ry

     iteration #  3     ecut=    30.00 Ry     beta= 0.40
     Davidson diagonalization with overlap
     ethr =  4.99E-03,  avg # of iterations =  5.0

     negative rho (up, down):  8.703E-02 0.000E+00

     total cpu time spent up to now is       89.6 secs

     total energy              =  -13279.95956360 Ry
     estimated scf accuracy    <     438.63090875 Ry

     iteration #  4     ecut=    30.00 Ry     beta= 0.40
     Davidson diagonalization with overlap
     ethr =  4.99E-03,  avg # of iterations =  2.0

     negative rho (up, down):  8.910E-02 0.000E+00

     total cpu time spent up to now is      109.2 secs

     total energy              =  -13297.26695177 Ry
     estimated scf accuracy    <      13.38490163 Ry

     iteration #  5     ecut=    30.00 Ry     beta= 0.40
     Davidson diagonalization with overlap
     ethr =  1.87E-03,  avg # of iterations =  6.0

     negative rho (up, down):  9.042E-02 0.000E+00

     total cpu time spent up to now is      129.4 secs

     total energy              =  -13297.81434614 Ry
     estimated scf accuracy    <       6.67603350 Ry

     iteration #  6     ecut=    30.00 Ry     beta= 0.40
     Davidson diagonalization with overlap
     ethr =  9.31E-04,  avg # of iterations =  2.0

     negative rho (up, down):  9.137E-02 0.000E+00

     total cpu time spent up to now is      149.1 secs

     total energy              =  -13298.08789577 Ry
     estimated scf accuracy    <       1.88718479 Ry

     iteration #  7     ecut=    30.00 Ry     beta= 0.40
     Davidson diagonalization with overlap
     ethr =  2.63E-04,  avg # of iterations =  9.0

     negative rho (up, down):  9.221E-02 0.000E+00

     total cpu time spent up to now is      169.4 secs

     total energy              =  -13298.18601146 Ry
     estimated scf accuracy    <       2.38959243 Ry

     iteration #  8     ecut=    30.00 Ry     beta= 0.40
     Davidson diagonalization with overlap
     ethr =  2.63E-04,  avg # of iterations =  1.0

     negative rho (up, down):  9.331E-02 0.000E+00

     total cpu time spent up to now is      188.9 secs

     total energy              =  -13298.18856572 Ry
     estimated scf accuracy    <       1.01891263 Ry

     iteration #  9     ecut=    30.00 Ry     beta= 0.40
     Davidson diagonalization with overlap
     ethr =  1.42E-04,  avg # of iterations =  1.0

     negative rho (up, down):  9.550E-02 0.000E+00

     total cpu time spent up to now is      208.3 secs

     total energy              =  -13298.15785360 Ry
     estimated scf accuracy    <       1.56594574 Ry

     iteration # 10     ecut=    30.00 Ry     beta= 0.40
     Davidson diagonalization with overlap
     ethr =  1.42E-04,  avg # of iterations =  2.0

     negative rho (up, down):  9.636E-02 0.000E+00

     total cpu time spent up to now is      228.0 secs

     total energy              =  -13298.20872814 Ry
     estimated scf accuracy    <       0.29948017 Ry

     iteration # 11     ecut=    30.00 Ry     beta= 0.40
     Davidson diagonalization with overlap
     ethr =  4.18E-05,  avg # of iterations =  2.0

     negative rho (up, down):  9.769E-02 0.000E+00

     total cpu time spent up to now is      247.7 secs

     total energy              =  -13298.22405440 Ry
     estimated scf accuracy    <       0.23218784 Ry

     iteration # 12     ecut=    30.00 Ry     beta= 0.40
     Davidson diagonalization with overlap
     ethr =  3.24E-05,  avg # of iterations =  1.0

     negative rho (up, down):  9.801E-02 0.000E+00

     total cpu time spent up to now is      267.0 secs

     total energy              =  -13298.22511667 Ry
     estimated scf accuracy    <       0.18978610 Ry

     iteration # 13     ecut=    30.00 Ry     beta= 0.40
     Davidson diagonalization with overlap
     ethr =  2.65E-05,  avg # of iterations =  2.0

     negative rho (up, down):  9.838E-02 0.000E+00

     total cpu time spent up to now is      286.9 secs

     total energy              =  -13298.22878160 Ry
     estimated scf accuracy    <       0.15641890 Ry

     iteration # 14     ecut=    30.00 Ry     beta= 0.40
     Davidson diagonalization with overlap
     ethr =  2.18E-05,  avg # of iterations =  1.0

     negative rho (up, down):  9.850E-02 0.000E+00

     total cpu time spent up to now is      306.3 secs

     total energy              =  -13298.22913328 Ry
     estimated scf accuracy    <       0.08711428 Ry

     iteration # 15     ecut=    30.00 Ry     beta= 0.40
     Davidson diagonalization with overlap
     ethr =  1.21E-05,  avg # of iterations =  2.0

     negative rho (up, down):  9.868E-02 0.000E+00

     total cpu time spent up to now is      326.0 secs

     total energy              =  -13298.22741433 Ry
     estimated scf accuracy    <       0.19333505 Ry

     iteration # 16     ecut=    30.00 Ry     beta= 0.40
     Davidson diagonalization with overlap
     ethr =  1.21E-05,  avg # of iterations =  1.0

     negative rho (up, down):  9.929E-02 0.000E+00

     total cpu time spent up to now is      345.4 secs

     total energy              =  -13298.23326744 Ry
     estimated scf accuracy    <       0.08726861 Ry

     iteration # 17     ecut=    30.00 Ry     beta= 0.40
     Davidson diagonalization with overlap
     ethr =  1.21E-05,  avg # of iterations =  1.0

     negative rho (up, down):  9.904E-02 0.000E+00

     total cpu time spent up to now is      364.7 secs

     total energy              =  -13298.23574747 Ry
     estimated scf accuracy    <       0.04365481 Ry

     iteration # 18     ecut=    30.00 Ry     beta= 0.40
     Davidson diagonalization with overlap
     ethr =  6.09E-06,  avg # of iterations =  2.0

     negative rho (up, down):  9.906E-02 0.000E+00

     total cpu time spent up to now is      384.5 secs

     total energy              =  -13298.23723567 Ry
     estimated scf accuracy    <       0.02186980 Ry

     iteration # 19     ecut=    30.00 Ry     beta= 0.40
     Davidson diagonalization with overlap
     ethr =  3.05E-06,  avg # of iterations = 14.0

     negative rho (up, down):  9.911E-02 0.000E+00

     total cpu time spent up to now is      405.3 secs

     total energy              =  -13298.23723514 Ry
     estimated scf accuracy    <       0.03392049 Ry

     iteration # 20     ecut=    30.00 Ry     beta= 0.40
     Davidson diagonalization with overlap
     ethr =  3.05E-06,  avg # of iterations =  1.0

     negative rho (up, down):  9.924E-02 0.000E+00

     total cpu time spent up to now is      424.7 secs

     total energy              =  -13298.23829095 Ry
     estimated scf accuracy    <       0.00264390 Ry

     iteration # 21     ecut=    30.00 Ry     beta= 0.40
     Davidson diagonalization with overlap
     ethr =  3.69E-07,  avg # of iterations =  2.0

     negative rho (up, down):  9.934E-02 0.000E+00

     total cpu time spent up to now is      444.3 secs

     total energy              =  -13298.23805356 Ry
     estimated scf accuracy    <       0.01148395 Ry

     iteration # 22     ecut=    30.00 Ry     beta= 0.40
     Davidson diagonalization with overlap
     ethr =  3.69E-07,  avg # of iterations =  1.0

     negative rho (up, down):  9.933E-02 0.000E+00

     total cpu time spent up to now is      463.6 secs

     total energy              =  -13298.23847290 Ry
     estimated scf accuracy    <       0.00103670 Ry

     iteration # 23     ecut=    30.00 Ry     beta= 0.40
     Davidson diagonalization with overlap
     ethr =  1.45E-07,  avg # of iterations =  2.0

     negative rho (up, down):  9.939E-02 0.000E+00

     total cpu time spent up to now is      483.4 secs

     total energy              =  -13298.23848494 Ry
     estimated scf accuracy    <       0.00275348 Ry

     iteration # 24     ecut=    30.00 Ry     beta= 0.40
     Davidson diagonalization with overlap
     ethr =  1.45E-07,  avg # of iterations =  1.0

     negative rho (up, down):  9.945E-02 0.000E+00

     total cpu time spent up to now is      502.6 secs

     total energy              =  -13298.23855355 Ry
     estimated scf accuracy    <       0.00096413 Ry

     iteration # 25     ecut=    30.00 Ry     beta= 0.40
     Davidson diagonalization with overlap
     ethr =  1.34E-07,  avg # of iterations =  1.0

     negative rho (up, down):  9.948E-02 0.000E+00

     total cpu time spent up to now is      522.0 secs

     total energy              =  -13298.23856175 Ry
     estimated scf accuracy    <       0.00114073 Ry

     iteration # 26     ecut=    30.00 Ry     beta= 0.40
     Davidson diagonalization with overlap
     ethr =  1.34E-07,  avg # of iterations =  1.0

     negative rho (up, down):  9.950E-02 0.000E+00

     total cpu time spent up to now is      541.3 secs

     total energy              =  -13298.23860459 Ry
     estimated scf accuracy    <       0.00054882 Ry

     iteration # 27     ecut=    30.00 Ry     beta= 0.40
     Davidson diagonalization with overlap
     ethr =  7.65E-08,  avg # of iterations =  1.0

     negative rho (up, down):  9.949E-02 0.000E+00

     total cpu time spent up to now is      560.7 secs

     total energy              =  -13298.23860071 Ry
     estimated scf accuracy    <       0.00023104 Ry

     iteration # 28     ecut=    30.00 Ry     beta= 0.40
     Davidson diagonalization with overlap
     ethr =  3.22E-08,  avg # of iterations =  2.0

     negative rho (up, down):  9.951E-02 0.000E+00

     total cpu time spent up to now is      580.3 secs

     total energy              =  -13298.23856138 Ry
     estimated scf accuracy    <       0.00172536 Ry

     iteration # 29     ecut=    30.00 Ry     beta= 0.40
     Davidson diagonalization with overlap
     ethr =  3.22E-08,  avg # of iterations =  2.0

     negative rho (up, down):  9.950E-02 0.000E+00

     total cpu time spent up to now is      600.0 secs

     total energy              =  -13298.23858312 Ry
     estimated scf accuracy    <       0.00120383 Ry

     iteration # 30     ecut=    30.00 Ry     beta= 0.40
     Davidson diagonalization with overlap
     ethr =  3.22E-08,  avg # of iterations =  2.0

     negative rho (up, down):  9.953E-02 0.000E+00

     total cpu time spent up to now is      619.6 secs

     total energy              =  -13298.23861779 Ry
     estimated scf accuracy    <       0.00032825 Ry

     iteration # 31     ecut=    30.00 Ry     beta= 0.40
     Davidson diagonalization with overlap
     ethr =  3.22E-08,  avg # of iterations =  1.0

     negative rho (up, down):  9.952E-02 0.000E+00

     total cpu time spent up to now is      638.9 secs

     total energy              =  -13298.23863017 Ry
     estimated scf accuracy    <       0.00006176 Ry

     iteration # 32     ecut=    30.00 Ry     beta= 0.40
     Davidson diagonalization with overlap
     ethr =  8.61E-09,  avg # of iterations =  1.0

     negative rho (up, down):  9.952E-02 0.000E+00

     total cpu time spent up to now is      658.2 secs

     total energy              =  -13298.23863139 Ry
     estimated scf accuracy    <       0.00006110 Ry

     iteration # 33     ecut=    30.00 Ry     beta= 0.40
     Davidson diagonalization with overlap
     ethr =  8.52E-09,  avg # of iterations =  1.0

     negative rho (up, down):  9.952E-02 0.000E+00

     total cpu time spent up to now is      677.5 secs

     total energy              =  -13298.23863254 Ry
     estimated scf accuracy    <       0.00005519 Ry

     iteration # 34     ecut=    30.00 Ry     beta= 0.40
     Davidson diagonalization with overlap
     ethr =  7.70E-09,  avg # of iterations =  1.0

     negative rho (up, down):  9.953E-02 0.000E+00

     total cpu time spent up to now is      696.8 secs

     total energy              =  -13298.23863518 Ry
     estimated scf accuracy    <       0.00001317 Ry

     iteration # 35     ecut=    30.00 Ry     beta= 0.40
     Davidson diagonalization with overlap
     ethr =  1.84E-09,  avg # of iterations =  1.0

     negative rho (up, down):  9.953E-02 0.000E+00

     total cpu time spent up to now is      716.2 secs

     total energy              =  -13298.23863540 Ry
     estimated scf accuracy    <       0.00000616 Ry

     iteration # 36     ecut=    30.00 Ry     beta= 0.40
     Davidson diagonalization with overlap
     ethr =  8.59E-10,  avg # of iterations =  1.0

     negative rho (up, down):  9.954E-02 0.000E+00

     total cpu time spent up to now is      735.6 secs

     total energy              =  -13298.23863567 Ry
     estimated scf accuracy    <       0.00000581 Ry

     iteration # 37     ecut=    30.00 Ry     beta= 0.40
     Davidson diagonalization with overlap
     ethr =  8.10E-10,  avg # of iterations =  1.0

     negative rho (up, down):  9.954E-02 0.000E+00

     total cpu time spent up to now is      755.2 secs

     total energy              =  -13298.23863577 Ry
     estimated scf accuracy    <       0.00000487 Ry

     iteration # 38     ecut=    30.00 Ry     beta= 0.40
     Davidson diagonalization with overlap
     ethr =  6.79E-10,  avg # of iterations =  1.0

     negative rho (up, down):  9.954E-02 0.000E+00

     total cpu time spent up to now is      774.5 secs

     total energy              =  -13298.23863567 Ry
     estimated scf accuracy    <       0.00001108 Ry

     iteration # 39     ecut=    30.00 Ry     beta= 0.40
     Davidson diagonalization with overlap
     ethr =  6.79E-10,  avg # of iterations =  1.0

     negative rho (up, down):  9.954E-02 0.000E+00

     total cpu time spent up to now is      793.8 secs

     total energy              =  -13298.23863581 Ry
     estimated scf accuracy    <       0.00000779 Ry

     iteration # 40     ecut=    30.00 Ry     beta= 0.40
     Davidson diagonalization with overlap
     ethr =  6.79E-10,  avg # of iterations =  1.0

     negative rho (up, down):  9.954E-02 0.000E+00

     total cpu time spent up to now is      813.2 secs

     total energy              =  -13298.23863589 Ry
     estimated scf accuracy    <       0.00000478 Ry

     iteration # 41     ecut=    30.00 Ry     beta= 0.40
     Davidson diagonalization with overlap
     ethr =  6.66E-10,  avg # of iterations =  1.0

     negative rho (up, down):  9.954E-02 0.000E+00

     total cpu time spent up to now is      832.5 secs

     total energy              =  -13298.23863606 Ry
     estimated scf accuracy    <       0.00000190 Ry

     iteration # 42     ecut=    30.00 Ry     beta= 0.40
     Davidson diagonalization with overlap
     ethr =  2.65E-10,  avg # of iterations =  1.0

     negative rho (up, down):  9.954E-02 0.000E+00

     total cpu time spent up to now is      851.8 secs

     total energy              =  -13298.23863607 Ry
     estimated scf accuracy    <       0.00000211 Ry

     iteration # 43     ecut=    30.00 Ry     beta= 0.40
     Davidson diagonalization with overlap
     ethr =  2.65E-10,  avg # of iterations =  1.0

     negative rho (up, down):  9.954E-02 0.000E+00

     total cpu time spent up to now is      871.2 secs

     total energy              =  -13298.23863609 Ry
     estimated scf accuracy    <       0.00000223 Ry

     iteration # 44     ecut=    30.00 Ry     beta= 0.40
     Davidson diagonalization with overlap
     ethr =  2.65E-10,  avg # of iterations =  1.0

     negative rho (up, down):  9.954E-02 0.000E+00

     total cpu time spent up to now is      890.6 secs

     total energy              =  -13298.23863614 Ry
     estimated scf accuracy    <       0.00000141 Ry

     iteration # 45     ecut=    30.00 Ry     beta= 0.40
     Davidson diagonalization with overlap
     ethr =  1.96E-10,  avg # of iterations =  1.0

     negative rho (up, down):  9.954E-02 0.000E+00

     total cpu time spent up to now is      910.0 secs

     total energy              =  -13298.23863620 Ry
     estimated scf accuracy    <       0.00000020 Ry

     iteration # 46     ecut=    30.00 Ry     beta= 0.40
     Davidson diagonalization with overlap
     ethr =  2.79E-11,  avg # of iterations =  1.0

     negative rho (up, down):  9.954E-02 0.000E+00

     total cpu time spent up to now is      929.4 secs

     total energy              =  -13298.23863621 Ry
     estimated scf accuracy    <       0.00000017 Ry

     iteration # 47     ecut=    30.00 Ry     beta= 0.40
     Davidson diagonalization with overlap
     ethr =  2.38E-11,  avg # of iterations =  1.0

     negative rho (up, down):  9.955E-02 0.000E+00

     total cpu time spent up to now is      948.7 secs

     End of self-consistent calculation

          k = 0.0000 0.0000 0.0000 ( 49103 PWs)   bands (ev):

   -61.6048 -61.4836 -61.4608 -61.4594 -61.4155 -61.3973 -61.3961 -61.3817
   -61.3598 -61.3595 -61.3509 -61.3508 -61.3507 -61.3363 -61.3348 -61.3344
   -61.3287 -61.3204 -61.3196 -61.3132 -61.3126 -61.3032 -61.2793 -61.2688
   -61.2637 -61.2630 -61.1742 -61.1735 -61.1732 -61.1631 -61.1558 -61.1545
   -35.8879 -35.8879 -35.8824 -35.8084 -35.8077 -35.7838 -35.7739 -35.7724
   -35.7718 -35.7601 -35.7555 -35.7552 -35.7507 -35.7306 -35.7301 -35.7230
   -35.7098 -35.7035 -35.7026 -35.6863 -35.6860 -35.6832 -35.6829 -35.6753
   -35.6718 -35.6055 -35.6054 -35.5812 -35.5656 -35.5648 -35.5614 -35.5548
   -35.5407 -35.5405 -35.5273 -35.5271 -35.5135 -35.4628 -35.4626 -35.4280
   -35.4272 -35.4209 -35.4130 -35.4073 -35.4041 -35.4040 -35.3887 -35.3880
   -35.3878 -35.3792 -35.3790 -35.3623 -35.3593 -35.3588 -35.3513 -35.3430
   -35.3430 -35.3150 -35.3139 -35.3090 -35.3054 -35.2987 -35.2980 -35.2796
   -35.2793 -35.2756 -35.2615 -35.2465 -35.2461 -35.2414 -35.2304 -35.2273
   -35.2271 -35.2214 -35.2122 -35.2114 -35.2108 -35.2061 -35.2057 -35.1780
   -35.1779 -35.1694 -35.1670 -35.1548 -35.1545 -35.1436 -35.1433 -35.1163
   -35.1161 -35.1125 -35.0904 -35.0873 -35.0732 -35.0731 -35.0650 -35.0645
   -19.4288 -17.7247 -17.6126 -17.5280 -17.5233 -17.4812 -17.4735 -17.4723
   -17.4411 -17.4335 -17.4319 -17.3942 -17.3938 -17.3787 -17.3787 -17.3505
   -17.3212 -17.3154 -17.2998 -17.2990 -17.2826 -17.2586 -17.2568 -17.1765
   -17.1736 -17.1532 -17.1521 -17.1516 -17.1198 -17.1101 -17.0599 -17.0587
   -12.3503 -12.3503 -12.1986 -12.1986 -11.9947 -11.3874 -11.3471 -11.3463
   -11.3454 -11.3113 -11.3073 -11.3069 -11.0766 -11.0405 -11.0397 -11.0192
   -11.0173 -11.0114 -10.9216 -10.8676 -10.8666  -6.6845  -6.6612  -6.6608
    -6.4145  -5.8109  -5.8095  -5.8084  -5.7666  -5.7448  -5.7350  -5.7346
    -5.6794  -5.6781  -5.6493  -5.5964  -5.5961  -5.3883  -5.3882  -5.2492
    -5.2307  -5.2299  -5.1730  -5.1010  -5.1008  -5.0532  -5.0527  -5.0466
    -5.0462  -5.0278  -5.0016  -4.9631  -4.9246  -4.9243  -4.9110  -4.8762
    -4.8756  -4.8599  -4.8595  -4.8576  -4.8439  -4.8097  -4.8092  -4.7483
    -4.6832  -4.6829  -4.6364  -4.6356  -4.6286  -4.6064  -4.5688  -4.5682
    -4.5426  -4.5421  -4.5312  -4.5139  -4.5132  -4.4841  -4.4746  -4.4740
    -4.4693  -4.2588  -4.2169  -4.2166  -4.1813  -4.1637  -4.1632  -4.1596
    -4.1124  -4.1119  -4.0301  -3.9102  -3.9093  -3.8115  -3.8024  -3.8021
    -3.7442  -3.7440  -3.7009  -3.7007  -3.6866  -3.6776  -3.6206  -3.6204
    -3.5904  -3.5865  -3.5515  -3.5506  -3.4890  -3.4238  -3.4234  -3.4074
    -3.3748  -3.3740  -3.3375  -3.3230  -3.3227  -3.3039  -3.2784  -3.2781
    -3.1105  -3.1103  -3.0972  -3.0500  -3.0496  -3.0330  -2.9871  -2.8144
    -2.8107  -2.8101  -2.7239  -2.7230  -2.6203  -2.6196  -2.6116  -2.5620
    -2.5401  -2.5395  -2.5043  -2.4087  -2.3790  -2.3785  -2.3302  -2.3294
    -2.3158  -2.3151  -2.3005  -2.2387  -2.2288  -2.2276  -1.9280  -1.8558
    -1.8553  -1.8109  -1.6706  -1.6701  -1.5578  -1.5570  -1.5459  -1.5073
    -1.5064  -1.5026  -1.2342  -0.9965  -0.9957  -0.9805  -0.9101  -0.9093
    -0.8076  -0.8058  -0.7618  -0.6412  -0.6410  -0.5769  -0.5753  -0.5079
     0.0961   0.0971   0.1499   0.1628   0.1633   0.2708   0.4358   0.5506
     0.6751   0.6765   0.6984   0.7010   0.7459   0.7578   0.8312   0.8332
     0.8704   0.9162   0.9194   0.9811   1.5259   1.5268   1.5376   1.5956
     1.6186   1.6202   1.6443   1.6452   1.6947   1.7536   1.7544   1.7731
     1.7738   1.7884   1.7888   1.8204   1.8425   1.8602   1.8726   1.8733
     1.9917   1.9942   1.9946   2.1366   2.1459   2.1484   2.4449   2.4462
     2.4982   2.5015   2.5017   2.5424   2.5485   2.5865   2.5937   2.5949
     2.6323   2.6327   2.6553   2.6809   2.6820   2.7290   2.7300   2.8287
     2.8377   2.8394   2.8548   2.8716   2.8721   2.9564   2.9808   3.0006
     3.0209   3.0221   3.0653   3.0654   3.1969   3.1974   3.2055   3.2082
     3.2292   3.2298   3.2368   3.2946   3.3035   3.3070   3.3080   3.3363
     3.3495   3.3934   3.3939   3.4376   3.4384   3.5020   4.0074

     the Fermi energy is     1.5571 ev

!    total energy              =  -13298.23863616 Ry
     estimated scf accuracy    <       0.00000008 Ry
     smearing contrib. (-TS)   =      -0.00520248 Ry
     internal energy E=F+TS    =  -13298.23343368 Ry

     The total energy is F=E-TS. E is the sum of the following terms:
     one-electron contribution =  -44602.19233784 Ry
     hartree contribution      =   22394.39766097 Ry
     xc contribution           =    -947.70433462 Ry
     ewald contribution        =   17449.97220583 Ry
     one-center paw contrib.   =   -7592.70662802 Ry

     convergence has been achieved in  47 iterations

     negative rho (up, down):  9.955E-02 0.000E+00

     Forces acting on atoms (cartesian axes, Ry/au):

     atom    1 type  1   force =     0.00324275   -0.00174396    0.00663596
     atom    2 type  1   force =    -0.00210998    0.00293592   -0.00022197
     atom    3 type  1   force =    -0.00009893    0.00984365   -0.01314818
     atom    4 type  1   force =    -0.00338185    0.00065604   -0.00030949
     atom    5 type  1   force =    -0.00829083   -0.00487901   -0.01304253
     atom    6 type  1   force =     0.00082802   -0.00301477   -0.00040014
     atom    7 type  1   force =     0.00836233   -0.00472602   -0.01309191
     atom    8 type  1   force =     0.00365571    0.00033379    0.00001599
     atom    9 type  1   force =    -0.00259996   -0.00145305   -0.00176001
     atom   10 type  1   force =     0.00290334   -0.00139109   -0.00157620
     atom   11 type  1   force =     0.00003070   -0.00005228    0.00509125
     atom   12 type  1   force =    -0.00307017   -0.00204591    0.00674925
     atom   13 type  1   force =    -0.00004871    0.00257855   -0.00128653
     atom   14 type  1   force =     0.00214077    0.00236648   -0.00056275
     atom   15 type  1   force =    -0.00008480    0.00380738    0.00653389
     atom   16 type  1   force =    -0.00132780   -0.00330717   -0.00005269
     atom   17 type  3   force =    -0.00462406   -0.00646736   -0.00710185
     atom   18 type  3   force =     0.00465003    0.00289970    0.00252083
     atom   19 type  3   force =    -0.00047921   -0.00978068   -0.01236112
     atom   20 type  3   force =     0.00036380    0.00157701   -0.02240354
     atom   21 type  3   force =     0.00640104   -0.00287719    0.00969628
     atom   22 type  3   force =    -0.00032161   -0.00038325    0.01430007
     atom   23 type  3   force =     0.00443731    0.00288244    0.00467349
     atom   24 type  3   force =    -0.00437674   -0.00095353   -0.00771262
     atom   25 type  3   force =     0.00164108    0.01163566    0.01449770
     atom   26 type  3   force =     0.00126551   -0.00029018   -0.01425903
     atom   27 type  3   force =    -0.00480511    0.00268363    0.00254874
     atom   28 type  3   force =     0.00470890   -0.00350543   -0.02347756
     atom   29 type  3   force =     0.00025764   -0.00529967    0.00263516
     atom   30 type  3   force =     0.00848973    0.00419541   -0.01255150
     atom   31 type  3   force =     0.00961917   -0.00421030    0.01398982
     atom   32 type  3   force =     0.00040925    0.00576139   -0.02367126
     atom   33 type  3   force =    -0.00816447    0.00500262   -0.01244820
     atom   34 type  3   force =    -0.00520984    0.00207695    0.00458551
     atom   35 type  3   force =    -0.00091666    0.00781107    0.00960538
     atom   36 type  3   force =     0.00752624   -0.00066522   -0.00734507
     atom   37 type  3   force =     0.00106679    0.00434751   -0.00804802
     atom   38 type  3   force =    -0.00536224   -0.00423545    0.00968494
     atom   39 type  3   force =    -0.00111896    0.01045483    0.01418545
     atom   40 type  3   force =     0.00306803   -0.00363038   -0.00764967
     atom   41 type  3   force =     0.00887727   -0.00727858    0.01460260
     atom   42 type  3   force =    -0.00565536   -0.00290643   -0.02341731
     atom   43 type  3   force =    -0.00815313   -0.00602683    0.01393622
     atom   44 type  3   force =    -0.00086832   -0.00077471   -0.01437981
     atom   45 type  3   force =    -0.01069078   -0.00428134    0.01472048
     atom   46 type  3   force =    -0.00296093    0.00703828   -0.00750637
     atom   47 type  3   force =     0.00036264   -0.00587706    0.00432059
     atom   48 type  3   force =     0.00029703    0.00155379   -0.01446677
     atom   49 type  4   force =     0.00105607    0.00086588   -0.00175255
     atom   50 type  4   force =     0.00006660   -0.00275862    0.00871714
     atom   51 type  4   force =     0.00176664    0.00054582    0.00222251
     atom   52 type  4   force =    -0.00034324   -0.00202100    0.00243825
     atom   53 type  4   force =     0.00128757    0.00048090    0.00176768
     atom   54 type  4   force =     0.00154498   -0.00101474   -0.00240009
     atom   55 type  4   force =    -0.00154135    0.00082869    0.00234778
     atom   56 type  4   force =     0.00197350    0.00150204    0.00863018
     atom   57 type  4   force =    -0.00011201    0.00094286    0.00114708
     atom   58 type  4   force =    -0.00005897   -0.00008117   -0.65661480
     atom   59 type  4   force =    -0.00152430    0.00121001    0.00230686
     atom   60 type  4   force =     0.00008268    0.00180288   -0.00227286
     atom   61 type  4   force =    -0.00225236    0.00113331    0.00854043
     atom   62 type  4   force =    -0.00089384   -0.00029211    0.00009668
     atom   63 type  4   force =     0.00111167   -0.00056476    0.00068137
     atom   64 type  4   force =    -0.00013185    0.00079724    0.00046961
     atom   65 type  4   force =     0.00001860   -0.00011938    0.00400923
     atom   66 type  4   force =     0.00004773   -0.00170984    0.00226306
     atom   67 type  4   force =     0.00154060    0.00097958    0.00224241
     atom   68 type  4   force =    -0.00236463    0.00143229    0.00875635
     atom   69 type  4   force =     0.00025847   -0.00153996   -0.00195733
     atom   70 type  4   force =    -0.00074743   -0.00037569    0.00161076
     atom   71 type  4   force =    -0.00087953   -0.00057499    0.00132345
     atom   72 type  4   force =     0.00101077   -0.00039282    0.00124709
     atom   73 type  4   force =    -0.00020372   -0.00137729    0.00150673
     atom   74 type  4   force =     0.00030931   -0.00250223    0.00872924
     atom   75 type  4   force =    -0.00129868    0.00053552   -0.00177133
     atom   76 type  4   force =    -0.00101358    0.00087969    0.00174734
     atom   77 type  4   force =     0.00060882   -0.00036894    0.00136121
     atom   78 type  4   force =     0.00231606    0.00141585    0.00860743
     atom   79 type  4   force =     0.00009036    0.00070329    0.00128694
     atom   80 type  4   force =    -0.00162451   -0.00080701   -0.00239869
     atom   81 type  2   force =     0.00001496    0.00005947    0.67383339

     Total force =     0.945527     Total SCF correction =     0.001647


     Computing stress (Cartesian axis) and pressure


     negative rho (up, down):  9.955E-02 0.000E+00
          total   stress  (Ry/bohr**3)                   (kbar)     P=     -110.97
  -0.00081797   0.00000000   0.00000007         -120.33        0.00        0.01
   0.00000000  -0.00081789   0.00000015            0.00     -120.32        0.02
   0.00000007   0.00000015  -0.00062728            0.01        0.02      -92.28


     Writing all to output data dir /root/qe_scratch/cand032_B_Mo2CO2_In.save/ :
     XML data file, charge density, pseudopotentials, collected wavefunctions
 
     init_run     :     21.94s CPU     28.39s WALL (       1 calls)
     electrons    :    754.83s CPU    919.51s WALL (       1 calls)
     forces       :      1.74s CPU      1.80s WALL (       1 calls)
     stress       :      3.13s CPU      3.16s WALL (       1 calls)

     Called by init_run:
     wfcinit      :      0.94s CPU      1.15s WALL (       1 calls)
     potinit      :     19.64s CPU     25.34s WALL (       1 calls)
     hinit0       :      0.74s CPU      0.86s WALL (       1 calls)

     Called by electrons:
     c_bands      :     71.85s CPU     71.97s WALL (      47 calls)
     sum_band     :     11.53s CPU     11.56s WALL (      47 calls)
     v_of_rho     :      4.09s CPU      5.32s WALL (      48 calls)
     newd         :     16.29s CPU     16.38s WALL (      48 calls)
                                       16.38s GPU  (      48 calls)
     PAW_pot      :    654.73s CPU    819.68s WALL (      48 calls)
     mix_rho      :      3.04s CPU      3.18s WALL (      47 calls)

     Called by c_bands:
     init_us_2    :      0.29s CPU      0.29s WALL (      95 calls)
     cegterg      :     70.70s CPU     70.78s WALL (      47 calls)

     Called by *egterg:
     cdiaghg      :      4.67s CPU      4.71s WALL (     141 calls)
                                        4.71s GPU  (     141 calls)
     h_psi        :     29.27s CPU     29.52s WALL (     142 calls)
                                       29.50s GPU  (     142 calls)
     s_psi        :      0.39s CPU      0.39s WALL (     142 calls)
     g_psi        :      0.00s CPU      0.09s WALL (      94 calls)
                                        0.09s GPU  (      94 calls)

     Called by h_psi:
     h_psi:calbec :      0.08s CPU      9.65s WALL (     142 calls)
                                        9.65s GPU  (     142 calls)
     vloc_psi     :     10.39s CPU     10.44s WALL (     142 calls)
                                       10.44s GPU  (     142 calls)
     add_vuspsi   :      0.38s CPU      9.34s WALL (     142 calls)
                                        9.34s GPU  (     142 calls)

     General routines
     calbec       :      0.08s CPU      0.26s WALL (     194 calls)
     fft          :      5.99s CPU      7.85s WALL (     647 calls)
                                        0.13s GPU  (     599 calls)
     ffts         :      5.11s CPU      7.01s WALL (      95 calls)
                                        0.01s GPU  (      47 calls)
     fftw         :      0.09s CPU     10.81s WALL (    6613 calls)
                                       10.79s GPU  (    6613 calls)
     interpolate  :     11.50s CPU     15.17s WALL (      48 calls)
 
     Parallel routines
 
     PWSCF        :  13m 2.74s CPU  15m54.34s WALL

 
   This run was terminated on:  13: 8:26   6May2026            

=------------------------------------------------------------------------------=
   JOB DONE.
=------------------------------------------------------------------------------=
Warning: ieee_invalid is signaling
Warning: ieee_divide_by_zero is signaling
Warning: ieee_underflow is signaling
Warning: ieee_inexact is signaling
FORTRAN STOP
