--------------------------------------------------------------------------
WARNING: Open MPI tried to bind a process but failed.  This is a
warning only; your job will continue, though performance may
be degraded.

  Local host:        3253031b5b37
  Application name:  /root/qe-7.3.1/bin/pw.x
  Error message:     failed to bind memory
  Location:          ../../../../../orte/mca/rtc/hwloc/rtc_hwloc.c:447

--------------------------------------------------------------------------

     Program PWSCF v.7.3.1 starts on  6May2026 at 14:14: 9 

     This program is part of the open-source Quantum ESPRESSO suite
     for quantum simulation of materials; please cite
         "P. Giannozzi et al., J. Phys.:Condens. Matter 21 395502 (2009);
         "P. Giannozzi et al., J. Phys.:Condens. Matter 29 465901 (2017);
         "P. Giannozzi et al., J. Chem. Phys. 152 154105 (2020);
          URL http://www.quantum-espresso.org", 
     in publications or presentations arising from this work. More details at
     http://www.quantum-espresso.org/quote

     Parallel version (MPI & OpenMP), running on       8 processor cores
     Number of MPI processes:                 1
     Threads/MPI process:                     8

     MPI processes distributed on     1 nodes
     82211 MiB available memory on the printing compute node when the environment starts
 
     Reading input from cand159_B_Ti2CO2_Sr.in

     Current dimensions of program PWSCF are:
     Max number of different atomic species (ntypx) = 10
     Max number of k-points (npk) =  40000
     Max angular momentum in pseudopotentials (lmaxx) =  4
     file Sr.UPF: wavefunction(s)  4P renormalized
     file Ti.UPF: wavefunction(s)  3S 3P 3D renormalized
 
     Subspace diagonalization in iterative solution of the eigenvalue problem:
     a serial algorithm will be used

 
     G-vector sticks info
     --------------------
     sticks:   dense  smooth     PW     G-vecs:    dense   smooth      PW
     Sum        6505    4339   1069               681217   370707   46193
 
     Using Slab Decomposition
 


     bravais-lattice index     =            0
     lattice parameter (alat)  =      22.9196  a.u.
     unit-cell volume          =   16700.1634 (a.u.)^3
     number of atoms/cell      =           81
     number of atomic types    =            4
     number of electrons       =       650.00
     number of Kohn-Sham states=          390
     kinetic-energy cutoff     =      30.0000  Ry
     charge density cutoff     =     180.0000  Ry
     scf convergence threshold =      1.0E-07
     mixing beta               =       0.4000
     number of iterations used =            8  plain     mixing
     Exchange-correlation= SLA  PW   PBX  PBC
                           (   1   4   3   4   0   0   0)

     GPU acceleration is ACTIVE.  1 visible GPUs per MPI rank


     celldm(1)=  22.919623  celldm(2)=   0.000000  celldm(3)=   0.000000
     celldm(4)=   0.000000  celldm(5)=   0.000000  celldm(6)=   0.000000

     crystal axes: (cart. coord. in units of alat)
               a(1) = (   1.000000   0.000000   0.000000 )  
               a(2) = (  -0.500000   0.866025   0.000000 )  
               a(3) = (   0.000000   0.000000   1.601650 )  

     reciprocal axes: (cart. coord. in units 2 pi/alat)
               b(1) = (  1.000000  0.577350 -0.000000 )  
               b(2) = (  0.000000  1.154701  0.000000 )  
               b(3) = (  0.000000 -0.000000  0.624356 )  


     PseudoPot. # 1 for C  read from file:
     /root/qe_pseudos/C.UPF
     MD5 check sum: 9b35a7431356f8229172919cb1fa74b8
     Pseudo is Norm-conserving, Zval =  4.0
     Generated by new atomic code, or converted to UPF format
     Using radial grid of 1073 points,  1 beta functions with: 
                l(1) =   0

     PseudoPot. # 2 for O  read from file:
     /root/qe_pseudos/O.UPF
     MD5 check sum: c7f41d994d4e90c1781f5cd713c45011
     Pseudo is Projector augmented-wave + core cor, Zval =  6.0
     Generated using "atomic" code by A. Dal Corso (espresso distribution)
     Shape of augmentation charge: BESSEL
     Using radial grid of 1095 points,  4 beta functions with: 
                l(1) =   0
                l(2) =   0
                l(3) =   1
                l(4) =   1
     Q(r) pseudized with 0 coefficients 


     PseudoPot. # 3 for Sr read from file:
     /root/qe_pseudos/Sr.UPF
     MD5 check sum: a3c6d0287e6b0f325c5350c23079ab60
     Pseudo is Projector augmented-wave + core cor, Zval = 10.0
     Generated using &quot;atomic&quot; code by A. Dal Corso  v.6.2.2
     Shape of augmentation charge: PSQ
     Using radial grid of 1221 points,  6 beta functions with: 
                l(1) =   0
                l(2) =   0
                l(3) =   1
                l(4) =   1
                l(5) =   2
                l(6) =   2
     Q(r) pseudized with 0 coefficients 


     PseudoPot. # 4 for Ti read from file:
     /root/qe_pseudos/Ti.UPF
     MD5 check sum: 01f69b0d8ba4438b2e03ac6ea4af1c0b
     Pseudo is Projector augmented-wave + core cor, Zval = 12.0
     Generated using &quot;atomic&quot; code by A. Dal Corso  v.6.2.2
     Shape of augmentation charge: PSQ
     Using radial grid of 1177 points,  6 beta functions with: 
                l(1) =   0
                l(2) =   0
                l(3) =   1
                l(4) =   1
                l(5) =   2
                l(6) =   2
     Q(r) pseudized with 0 coefficients 


     atomic species   valence    mass     pseudopotential
     C                 4.00    12.01100     C ( 1.00)
     O                 6.00    15.99900     O ( 1.00)
     Sr               10.00    87.62000     Sr( 1.00)
     Ti               12.00    47.86700     Ti( 1.00)

     No symmetry found



   Cartesian axes

     site n.     atom                  positions (alat units)
         1        C      tau(   1) = (   0.1249188   0.6499129   0.8017710  )
         2        C      tau(   2) = (   0.2497002   0.4329782   0.8015083  )
         3        C      tau(   3) = (   0.0013343  -0.0001803   0.7965345  )
         4        C      tau(   4) = (   0.3753360   0.2158560   0.8014691  )
         5        C      tau(   5) = (   0.7494872  -0.0014052   0.7995173  )
         6        C      tau(   6) = (   0.3737900   0.6497823   0.7994387  )
         7        C      tau(   7) = (   0.4999722  -0.0009064   0.8013069  )
         8        C      tau(   8) = (  -0.1244642   0.2177356   0.7994139  )
         9        C      tau(   9) = (  -0.1251317   0.6495064   0.8021058  )
        10        C      tau(  10) = (  -0.0000586   0.4328371   0.8019206  )
        11        C      tau(  11) = (   0.6257128   0.2157144   0.8009463  )
        12        C      tau(  12) = (   0.1241309   0.2166367   0.8012095  )
        13        C      tau(  13) = (  -0.2492027   0.4335097   0.8010627  )
        14        C      tau(  14) = (   0.2499194  -0.0008014   0.8014235  )
        15        C      tau(  15) = (  -0.3742097   0.6492817   0.7997662  )
        16        C      tau(  16) = (   0.5001909   0.4335933   0.8009429  )
        17        O      tau(  17) = (  -0.1234682   0.5060488   0.6181766  )
        18        O      tau(  18) = (  -0.1250693   0.7945856   0.9836062  )
        19        O      tau(  19) = (  -0.0007331   0.7204492   0.6189406  )
        20        O      tau(  20) = (   0.5001006   0.7194885   0.6157836  )
        21        O      tau(  21) = (   0.7463851   0.1462507   0.9860471  )
        22        O      tau(  22) = (   0.4999572   0.1445103   0.9837096  )
        23        O      tau(  23) = (   0.6233818   0.0726057   0.6188243  )
        24        O      tau(  24) = (  -0.1251383   0.3601303   0.9840684  )
        25        O      tau(  25) = (   0.1281523   0.0741461   0.6163491  )
        26        O      tau(  26) = (   0.3754952   0.3607461   0.9838949  )
        27        O      tau(  27) = (   0.4998910   0.2883867   0.6197260  )
        28        O      tau(  28) = (   0.2470808   0.7199492   0.6169612  )
        29        O      tau(  29) = (   0.3753654   0.7919149   0.9919057  )
        30        O      tau(  30) = (   0.2508844   0.5774315   0.9838792  )
        31        O      tau(  31) = (   0.3744967   0.5036101   0.6185398  )
        32        O      tau(  32) = (   0.0033997   0.1428541   0.9902424  )
        33        O      tau(  33) = (   0.5000394   0.5748048   0.9847660  )
        34        O      tau(  34) = (   0.8736566   0.0731561   0.6159089  )
        35        O      tau(  35) = (   0.7493030   0.2895528   0.6181769  )
        36        O      tau(  36) = (  -0.3757893   0.7969653   0.9899836  )
        37        O      tau(  37) = (  -0.2470495   0.7213302   0.6175998  )
        38        O      tau(  38) = (  -0.2506540   0.5774672   0.9839436  )
        39        O      tau(  39) = (   0.2505590   0.1441140   0.9837039  )
        40        O      tau(  40) = (   0.3753011   0.0720146   0.6192684  )
        41        O      tau(  41) = (   0.1236323   0.5051283   0.6185349  )
        42        O      tau(  42) = (   0.6244734   0.3606052   0.9830807  )
        43        O      tau(  43) = (   0.1253904   0.3604643   0.9838101  )
        44        O      tau(  44) = (   0.1256118   0.7945312   0.9841906  )
        45        O      tau(  45) = (   0.2499056   0.2888345   0.6194117  )
        46        O      tau(  46) = (   0.0013245   0.2913879   0.6173643  )
        47        O      tau(  47) = (   0.0001666   0.5774413   0.9835165  )
        48        O      tau(  48) = (   0.6253355   0.5039489   0.6179019  )
        49        Ti     tau(  49) = (   0.4982494   0.7222314   0.8944902  )
        50        Ti     tau(  50) = (   0.8755397   0.0704040   0.8929176  )
        51        Ti     tau(  51) = (   0.3749821   0.7945517   0.6954423  )
        52        Ti     tau(  52) = (   0.7505154   0.2869371   0.9080004  )
        53        Ti     tau(  53) = (   0.7502059   0.1444669   0.6926967  )
        54        Ti     tau(  54) = (   0.4998822   0.5784003   0.6935007  )
        55        Ti     tau(  55) = (   0.6242944   0.5063219   0.9073039  )
        56        Ti     tau(  56) = (   0.6246349   0.3613529   0.6929209  )
        57        Ti     tau(  57) = (  -0.0001596   0.1418761   0.6961375  )
        58        Ti     tau(  58) = (   0.1275730   0.7936226   0.7004576  )
        59        Ti     tau(  59) = (   0.1257438   0.0727206   0.9058561  )
        60        Ti     tau(  60) = (  -0.1247682   0.3587514   0.6979521  )
        61        Ti     tau(  61) = (   0.0003479   0.2863292   0.9084459  )
        62        Ti     tau(  62) = (  -0.2503624   0.5778067   0.6959356  )
        63        Ti     tau(  63) = (  -0.1253183   0.5048690   0.9076752  )
        64        Ti     tau(  64) = (  -0.3770250   0.7940274   0.6957541  )
        65        Ti     tau(  65) = (  -0.2508581   0.7229755   0.9079026  )
        66        Ti     tau(  66) = (   0.2494795   0.1441205   0.6922846  )
        67        Ti     tau(  67) = (   0.3745120   0.0718920   0.9059445  )
        68        Ti     tau(  68) = (   0.2530498   0.7245134   0.9089797  )
        69        Ti     tau(  69) = (   0.1228620   0.3610579   0.6936770  )
        70        Ti     tau(  70) = (  -0.0009251   0.5771396   0.6926827  )
        71        Ti     tau(  71) = (   0.1243359   0.5062889   0.9070138  )
        72        Ti     tau(  72) = (  -0.1251728   0.7929794   0.6932917  )
        73        Ti     tau(  73) = (   0.0001135   0.7217934   0.9063679  )
        74        Ti     tau(  74) = (   0.6268374   0.0736395   0.9104792  )
        75        Ti     tau(  75) = (   0.3744465   0.3616613   0.6943623  )
        76        Ti     tau(  76) = (   0.4997562   0.2888820   0.9100555  )
        77        Ti     tau(  77) = (   0.2507614   0.5794139   0.6962552  )
        78        Ti     tau(  78) = (   0.3755897   0.5060977   0.9092215  )
        79        Ti     tau(  79) = (   0.2488962   0.2897206   0.9068658  )
        80        Ti     tau(  80) = (   0.5009897   0.1436925   0.6945257  )
        81        Sr     tau(  81) = (  -0.0018226  -0.0004779   1.1289756  )

     number of k points=     1  Methfessel-Paxton smearing, width (Ry)=  0.0100
                       cart. coord. in units 2pi/alat
        k(    1) = (   0.0000000   0.0000000   0.0000000), wk =   2.0000000

     Dense  grid:   681217 G-vectors     FFT dimensions: ( 100, 100, 160)

     Smooth grid:   370707 G-vectors     FFT dimensions: (  80,  80, 135)

     Estimated max dynamical RAM per process >       4.16 GB

     Check: negative core charge=   -0.000044

     Initial potential from superposition of free atoms

     starting charge     641.9454, renormalised to     650.0000

     negative rho (up, down):  4.098E-02 0.000E+00
     Starting wfcs are  584 randomized atomic wfcs
     Checking if some PAW data can be deallocated... 

     total cpu time spent up to now is       27.0 secs

     Self-consistent Calculation

     iteration #  1     ecut=    30.00 Ry     beta= 0.40
     Davidson diagonalization with overlap
     ethr =  1.00E-02,  avg # of iterations =  3.0

     negative rho (up, down):  3.713E-02 0.000E+00

     total cpu time spent up to now is       47.3 secs

     total energy              =   -7641.99485079 Ry
     estimated scf accuracy    <      54.51255103 Ry

     iteration #  2     ecut=    30.00 Ry     beta= 0.40
     Davidson diagonalization with overlap
     ethr =  8.39E-03,  avg # of iterations =  5.0

     negative rho (up, down):  5.255E-02 0.000E+00

     total cpu time spent up to now is       67.6 secs

     total energy              =   -7651.60915349 Ry
     estimated scf accuracy    <      24.01255138 Ry

     iteration #  3     ecut=    30.00 Ry     beta= 0.40
     Davidson diagonalization with overlap
     ethr =  3.69E-03,  avg # of iterations =  6.0

     negative rho (up, down):  8.225E-02 0.000E+00

     total cpu time spent up to now is       87.7 secs

     total energy              =   -7651.47053267 Ry
     estimated scf accuracy    <      91.34634939 Ry

     iteration #  4     ecut=    30.00 Ry     beta= 0.40
     Davidson diagonalization with overlap
     ethr =  3.69E-03,  avg # of iterations =  2.0

     negative rho (up, down):  8.494E-02 0.000E+00

     total cpu time spent up to now is      107.6 secs

     total energy              =   -7657.51991246 Ry
     estimated scf accuracy    <       2.71428527 Ry

     iteration #  5     ecut=    30.00 Ry     beta= 0.40
     Davidson diagonalization with overlap
     ethr =  4.18E-04,  avg # of iterations =  9.0

     negative rho (up, down):  9.357E-02 0.000E+00

     total cpu time spent up to now is      128.0 secs

     total energy              =   -7657.67264140 Ry
     estimated scf accuracy    <       0.77926398 Ry

     iteration #  6     ecut=    30.00 Ry     beta= 0.40
     Davidson diagonalization with overlap
     ethr =  1.20E-04,  avg # of iterations = 19.0

     negative rho (up, down):  1.139E-01 0.000E+00

     total cpu time spent up to now is      149.1 secs

     total energy              =   -7657.70122147 Ry
     estimated scf accuracy    <       0.30846502 Ry

     iteration #  7     ecut=    30.00 Ry     beta= 0.40
     Davidson diagonalization with overlap
     ethr =  4.75E-05,  avg # of iterations = 15.0

     negative rho (up, down):  1.498E-01 0.000E+00

     total cpu time spent up to now is      170.6 secs

     total energy              =   -7657.72148544 Ry
     estimated scf accuracy    <       0.40541208 Ry

     iteration #  8     ecut=    30.00 Ry     beta= 0.40
     Davidson diagonalization with overlap
     c_bands:  2 eigenvalues not converged
     ethr =  4.75E-05,  avg # of iterations = 20.0

     negative rho (up, down):  1.937E-01 0.000E+00

     total cpu time spent up to now is      191.7 secs

     total energy              =   -7657.74422348 Ry
     estimated scf accuracy    <       0.19779175 Ry

     iteration #  9     ecut=    30.00 Ry     beta= 0.40
     Davidson diagonalization with overlap
     ethr =  3.04E-05,  avg # of iterations =  2.0

     negative rho (up, down):  2.511E-01 0.000E+00

     total cpu time spent up to now is      211.6 secs

     total energy              =   -7657.76856623 Ry
     estimated scf accuracy    <       0.02532288 Ry

     iteration # 10     ecut=    30.00 Ry     beta= 0.40
     Davidson diagonalization with overlap
     ethr =  3.90E-06,  avg # of iterations = 11.0

     negative rho (up, down):  3.062E-01 0.000E+00

     total cpu time spent up to now is      232.8 secs

     total energy              =   -7657.77750697 Ry
     estimated scf accuracy    <       0.00991721 Ry

     iteration # 11     ecut=    30.00 Ry     beta= 0.40
     Davidson diagonalization with overlap
     ethr =  1.53E-06,  avg # of iterations =  2.0

     negative rho (up, down):  3.681E-01 0.000E+00

     total cpu time spent up to now is      252.7 secs

     total energy              =   -7657.78287409 Ry
     estimated scf accuracy    <       0.00502842 Ry

     iteration # 12     ecut=    30.00 Ry     beta= 0.40
     Davidson diagonalization with overlap
     ethr =  7.74E-07,  avg # of iterations =  2.0

     negative rho (up, down):  4.308E-01 0.000E+00

     total cpu time spent up to now is      272.6 secs

     total energy              =   -7657.78849311 Ry
     estimated scf accuracy    <       0.00334806 Ry

     iteration # 13     ecut=    30.00 Ry     beta= 0.40
     Davidson diagonalization with overlap
     ethr =  5.15E-07,  avg # of iterations =  2.0

     negative rho (up, down):  5.003E-01 0.000E+00

     total cpu time spent up to now is      292.6 secs

     total energy              =   -7657.79277470 Ry
     estimated scf accuracy    <       0.00285191 Ry

     iteration # 14     ecut=    30.00 Ry     beta= 0.40
     Davidson diagonalization with overlap
     ethr =  4.39E-07,  avg # of iterations =  2.0

     negative rho (up, down):  5.897E-01 0.000E+00

     total cpu time spent up to now is      312.4 secs

     total energy              =   -7657.79173510 Ry
     estimated scf accuracy    <       0.00281514 Ry

     iteration # 15     ecut=    30.00 Ry     beta= 0.40
     Davidson diagonalization with overlap
     c_bands:  2 eigenvalues not converged
     ethr =  4.33E-07,  avg # of iterations = 20.0

     negative rho (up, down):  6.644E-01 0.000E+00

     total cpu time spent up to now is      333.4 secs

     total energy              =   -7657.79293522 Ry
     estimated scf accuracy    <       0.00423225 Ry

     iteration # 16     ecut=    30.00 Ry     beta= 0.40
     Davidson diagonalization with overlap
     ethr =  4.33E-07,  avg # of iterations =  2.0

     negative rho (up, down):  7.650E-01 0.000E+00

     total cpu time spent up to now is      353.3 secs

     total energy              =   -7657.78469681 Ry
     estimated scf accuracy    <       0.00528053 Ry

     iteration # 17     ecut=    30.00 Ry     beta= 0.40
     Davidson diagonalization with overlap
     c_bands:  1 eigenvalues not converged
     ethr =  4.33E-07,  avg # of iterations = 20.0

     negative rho (up, down):  8.806E-01 0.000E+00

     total cpu time spent up to now is      374.3 secs

     total energy              =   -7657.76815818 Ry
     estimated scf accuracy    <       0.00735625 Ry

     iteration # 18     ecut=    30.00 Ry     beta= 0.40
     Davidson diagonalization with overlap
     ethr =  4.33E-07,  avg # of iterations =  2.0

     negative rho (up, down):  9.721E-01 0.000E+00

     total cpu time spent up to now is      394.2 secs

     total energy              =   -7657.75456728 Ry
     estimated scf accuracy    <       0.01003688 Ry

     iteration # 19     ecut=    30.00 Ry     beta= 0.40
     Davidson diagonalization with overlap
     ethr =  4.33E-07,  avg # of iterations = 12.0

     negative rho (up, down):  1.056E+00 0.000E+00

     total cpu time spent up to now is      414.7 secs

     total energy              =   -7657.74021901 Ry
     estimated scf accuracy    <       0.01213403 Ry

     iteration # 20     ecut=    30.00 Ry     beta= 0.40
     Davidson diagonalization with overlap
     ethr =  4.33E-07,  avg # of iterations =  2.0

     negative rho (up, down):  1.114E+00 0.000E+00

     total cpu time spent up to now is      434.5 secs

     total energy              =   -7657.73145927 Ry
     estimated scf accuracy    <       0.01413937 Ry

     iteration # 21     ecut=    30.00 Ry     beta= 0.40
     Davidson diagonalization with overlap
     ethr =  4.33E-07,  avg # of iterations =  2.0

     negative rho (up, down):  1.153E+00 0.000E+00

     total cpu time spent up to now is      454.5 secs

     total energy              =   -7657.72736609 Ry
     estimated scf accuracy    <       0.01536573 Ry

     iteration # 22     ecut=    30.00 Ry     beta= 0.40
     Davidson diagonalization with overlap
     ethr =  4.33E-07,  avg # of iterations = 15.0

     negative rho (up, down):  1.171E+00 0.000E+00

     total cpu time spent up to now is      475.3 secs

     total energy              =   -7657.72967667 Ry
     estimated scf accuracy    <       0.01592439 Ry

     iteration # 23     ecut=    30.00 Ry     beta= 0.40
     Davidson diagonalization with overlap
     ethr =  4.33E-07,  avg # of iterations =  2.0

     negative rho (up, down):  1.040E+00 0.000E+00

     total cpu time spent up to now is      495.1 secs

     total energy              =   -7657.78276549 Ry
     estimated scf accuracy    <       0.01559093 Ry

     iteration # 24     ecut=    30.00 Ry     beta= 0.40
     Davidson diagonalization with overlap
     ethr =  4.33E-07,  avg # of iterations =  2.0

     negative rho (up, down):  1.070E+00 0.000E+00

     total cpu time spent up to now is      514.9 secs

     total energy              =   -7657.78454652 Ry
     estimated scf accuracy    <       0.00833312 Ry

     iteration # 25     ecut=    30.00 Ry     beta= 0.40
     Davidson diagonalization with overlap
     ethr =  4.33E-07,  avg # of iterations =  2.0

     negative rho (up, down):  1.073E+00 0.000E+00

     total cpu time spent up to now is      534.9 secs

     total energy              =   -7657.79469679 Ry
     estimated scf accuracy    <       0.00803608 Ry

     iteration # 26     ecut=    30.00 Ry     beta= 0.40
     Davidson diagonalization with overlap
     ethr =  4.33E-07,  avg # of iterations =  2.0

     negative rho (up, down):  1.103E+00 0.000E+00

     total cpu time spent up to now is      554.7 secs

     total energy              =   -7657.79469372 Ry
     estimated scf accuracy    <       0.00663409 Ry

     iteration # 27     ecut=    30.00 Ry     beta= 0.40
     Davidson diagonalization with overlap
     ethr =  4.33E-07,  avg # of iterations =  2.0

     negative rho (up, down):  1.143E+00 0.000E+00

     total cpu time spent up to now is      574.5 secs

     total energy              =   -7657.79012398 Ry
     estimated scf accuracy    <       0.00653400 Ry

     iteration # 28     ecut=    30.00 Ry     beta= 0.40
     Davidson diagonalization with overlap
     ethr =  4.33E-07,  avg # of iterations =  2.0

     negative rho (up, down):  1.183E+00 0.000E+00

     total cpu time spent up to now is      594.4 secs

     total energy              =   -7657.78404184 Ry
     estimated scf accuracy    <       0.00717957 Ry

     iteration # 29     ecut=    30.00 Ry     beta= 0.40
     Davidson diagonalization with overlap
     ethr =  4.33E-07,  avg # of iterations =  2.0

     negative rho (up, down):  1.219E+00 0.000E+00

     total cpu time spent up to now is      614.3 secs

     total energy              =   -7657.77846541 Ry
     estimated scf accuracy    <       0.00818870 Ry

     iteration # 30     ecut=    30.00 Ry     beta= 0.40
     Davidson diagonalization with overlap
     ethr =  4.33E-07,  avg # of iterations =  2.0

     negative rho (up, down):  1.237E+00 0.000E+00

     total cpu time spent up to now is      634.1 secs

     total energy              =   -7657.77938681 Ry
     estimated scf accuracy    <       0.00908155 Ry

     iteration # 31     ecut=    30.00 Ry     beta= 0.40
     Davidson diagonalization with overlap
     ethr =  4.33E-07,  avg # of iterations =  5.0

     negative rho (up, down):  1.283E+00 0.000E+00

     total cpu time spent up to now is      654.2 secs

     total energy              =   -7657.76725150 Ry
     estimated scf accuracy    <       0.01366317 Ry

     iteration # 32     ecut=    30.00 Ry     beta= 0.40
     Davidson diagonalization with overlap
     ethr =  4.33E-07,  avg # of iterations =  5.0

     negative rho (up, down):  1.341E+00 0.000E+00

     total cpu time spent up to now is      674.3 secs

     total energy              =   -7657.74793640 Ry
     estimated scf accuracy    <       0.01149093 Ry

     iteration # 33     ecut=    30.00 Ry     beta= 0.40
     Davidson diagonalization with overlap
     ethr =  4.33E-07,  avg # of iterations =  2.0

     negative rho (up, down):  1.381E+00 0.000E+00

     total cpu time spent up to now is      694.2 secs

     total energy              =   -7657.73664521 Ry
     estimated scf accuracy    <       0.01342797 Ry

     iteration # 34     ecut=    30.00 Ry     beta= 0.40
     Davidson diagonalization with overlap
     ethr =  4.33E-07,  avg # of iterations =  2.0

     negative rho (up, down):  1.391E+00 0.000E+00

     total cpu time spent up to now is      713.9 secs

     total energy              =   -7657.73404622 Ry
     estimated scf accuracy    <       0.01548702 Ry

     iteration # 35     ecut=    30.00 Ry     beta= 0.40
     Davidson diagonalization with overlap
     ethr =  4.33E-07,  avg # of iterations =  2.0

     negative rho (up, down):  1.233E+00 0.000E+00

     total cpu time spent up to now is      733.7 secs

     total energy              =   -7657.78913782 Ry
     estimated scf accuracy    <       0.01568213 Ry

     iteration # 36     ecut=    30.00 Ry     beta= 0.40
     Davidson diagonalization with overlap
     ethr =  4.33E-07,  avg # of iterations =  5.0

     negative rho (up, down):  1.189E+00 0.000E+00

     total cpu time spent up to now is      754.0 secs

     total energy              =   -7657.80863164 Ry
     estimated scf accuracy    <       0.01159656 Ry

     iteration # 37     ecut=    30.00 Ry     beta= 0.40
     Davidson diagonalization with overlap
     ethr =  4.33E-07,  avg # of iterations =  6.0

     negative rho (up, down):  1.165E+00 0.000E+00

     total cpu time spent up to now is      774.4 secs

     total energy              =   -7657.82288259 Ry
     estimated scf accuracy    <       0.01107056 Ry

     iteration # 38     ecut=    30.00 Ry     beta= 0.40
     Davidson diagonalization with overlap
     c_bands:  1 eigenvalues not converged
     ethr =  4.33E-07,  avg # of iterations = 20.0

     negative rho (up, down):  1.183E+00 0.000E+00

     total cpu time spent up to now is      796.1 secs

     total energy              =   -7657.82490735 Ry
     estimated scf accuracy    <       0.00556962 Ry

     iteration # 39     ecut=    30.00 Ry     beta= 0.40
     Davidson diagonalization with overlap
     ethr =  4.33E-07,  avg # of iterations =  5.0

     negative rho (up, down):  1.199E+00 0.000E+00

     total cpu time spent up to now is      816.3 secs

     total energy              =   -7657.82581491 Ry
     estimated scf accuracy    <       0.00097041 Ry

     iteration # 40     ecut=    30.00 Ry     beta= 0.40
     Davidson diagonalization with overlap
     ethr =  1.49E-07,  avg # of iterations =  5.0

     negative rho (up, down):  1.211E+00 0.000E+00

     total cpu time spent up to now is      836.5 secs

     total energy              =   -7657.82692469 Ry
     estimated scf accuracy    <       0.00049668 Ry

     iteration # 41     ecut=    30.00 Ry     beta= 0.40
     Davidson diagonalization with overlap
     ethr =  7.64E-08,  avg # of iterations =  5.0

     negative rho (up, down):  1.224E+00 0.000E+00

     total cpu time spent up to now is      856.7 secs

     total energy              =   -7657.82732914 Ry
     estimated scf accuracy    <       0.00123131 Ry

     iteration # 42     ecut=    30.00 Ry     beta= 0.40
     Davidson diagonalization with overlap
     ethr =  7.64E-08,  avg # of iterations =  5.0

     negative rho (up, down):  1.239E+00 0.000E+00

     total cpu time spent up to now is      876.9 secs

     total energy              =   -7657.82752996 Ry
     estimated scf accuracy    <       0.00035283 Ry

     iteration # 43     ecut=    30.00 Ry     beta= 0.40
     Davidson diagonalization with overlap
     ethr =  5.43E-08,  avg # of iterations =  5.0

     negative rho (up, down):  1.249E+00 0.000E+00

     total cpu time spent up to now is      896.9 secs

     total energy              =   -7657.82780329 Ry
     estimated scf accuracy    <       0.00019163 Ry

     iteration # 44     ecut=    30.00 Ry     beta= 0.40
     Davidson diagonalization with overlap
     ethr =  2.95E-08,  avg # of iterations =  5.0

     negative rho (up, down):  1.260E+00 0.000E+00

     total cpu time spent up to now is      917.1 secs

     total energy              =   -7657.82799479 Ry
     estimated scf accuracy    <       0.00015337 Ry

     iteration # 45     ecut=    30.00 Ry     beta= 0.40
     Davidson diagonalization with overlap
     ethr =  2.36E-08,  avg # of iterations =  5.0

     negative rho (up, down):  1.268E+00 0.000E+00

     total cpu time spent up to now is      937.1 secs

     total energy              =   -7657.82816679 Ry
     estimated scf accuracy    <       0.00005088 Ry

     iteration # 46     ecut=    30.00 Ry     beta= 0.40
     Davidson diagonalization with overlap
     ethr =  7.83E-09,  avg # of iterations =  5.0

     negative rho (up, down):  1.277E+00 0.000E+00

     total cpu time spent up to now is      957.2 secs

     total energy              =   -7657.82828726 Ry
     estimated scf accuracy    <       0.00001854 Ry

     iteration # 47     ecut=    30.00 Ry     beta= 0.40
     Davidson diagonalization with overlap
     ethr =  2.85E-09,  avg # of iterations =  5.0

     negative rho (up, down):  1.284E+00 0.000E+00

     total cpu time spent up to now is      977.6 secs

     total energy              =   -7657.82833934 Ry
     estimated scf accuracy    <       0.00001956 Ry

     iteration # 48     ecut=    30.00 Ry     beta= 0.40
     Davidson diagonalization with overlap
     ethr =  2.85E-09,  avg # of iterations =  3.0

     negative rho (up, down):  1.290E+00 0.000E+00

     total cpu time spent up to now is      997.6 secs

     total energy              =   -7657.82839955 Ry
     estimated scf accuracy    <       0.00000731 Ry

     iteration # 49     ecut=    30.00 Ry     beta= 0.40
     Davidson diagonalization with overlap
     ethr =  1.12E-09,  avg # of iterations =  5.0

     negative rho (up, down):  1.296E+00 0.000E+00

     total cpu time spent up to now is     1018.0 secs

     total energy              =   -7657.82844572 Ry
     estimated scf accuracy    <       0.00000887 Ry

     iteration # 50     ecut=    30.00 Ry     beta= 0.40
     Davidson diagonalization with overlap
     ethr =  1.12E-09,  avg # of iterations =  3.0

     negative rho (up, down):  1.301E+00 0.000E+00

     total cpu time spent up to now is     1038.2 secs

     total energy              =   -7657.82849737 Ry
     estimated scf accuracy    <       0.00000899 Ry

     iteration # 51     ecut=    30.00 Ry     beta= 0.40
     Davidson diagonalization with overlap
     ethr =  1.12E-09,  avg # of iterations =  3.0

     negative rho (up, down):  1.305E+00 0.000E+00

     total cpu time spent up to now is     1058.4 secs

     total energy              =   -7657.82837311 Ry
     estimated scf accuracy    <       0.00002048 Ry

     iteration # 52     ecut=    30.00 Ry     beta= 0.40
     Davidson diagonalization with overlap
     ethr =  1.12E-09,  avg # of iterations =  5.0

     negative rho (up, down):  1.309E+00 0.000E+00

     total cpu time spent up to now is     1078.7 secs

     total energy              =   -7657.82849772 Ry
     estimated scf accuracy    <       0.00007622 Ry

     iteration # 53     ecut=    30.00 Ry     beta= 0.40
     Davidson diagonalization with overlap
     ethr =  1.12E-09,  avg # of iterations =  5.0

     negative rho (up, down):  1.312E+00 0.000E+00

     total cpu time spent up to now is     1099.0 secs

     total energy              =   -7657.82854848 Ry
     estimated scf accuracy    <       0.00003723 Ry

     iteration # 54     ecut=    30.00 Ry     beta= 0.40
     Davidson diagonalization with overlap
     ethr =  1.12E-09,  avg # of iterations =  5.0

     negative rho (up, down):  1.315E+00 0.000E+00

     total cpu time spent up to now is     1119.3 secs

     total energy              =   -7657.82856060 Ry
     estimated scf accuracy    <       0.00001816 Ry

     iteration # 55     ecut=    30.00 Ry     beta= 0.40
     Davidson diagonalization with overlap
     ethr =  1.12E-09,  avg # of iterations =  5.0

     negative rho (up, down):  1.318E+00 0.000E+00

     total cpu time spent up to now is     1139.6 secs

     total energy              =   -7657.82855355 Ry
     estimated scf accuracy    <       0.00001405 Ry

     iteration # 56     ecut=    30.00 Ry     beta= 0.40
     Davidson diagonalization with overlap
     ethr =  1.12E-09,  avg # of iterations =  3.0

     negative rho (up, down):  1.320E+00 0.000E+00

     total cpu time spent up to now is     1159.7 secs

     total energy              =   -7657.82857713 Ry
     estimated scf accuracy    <       0.00000480 Ry

     iteration # 57     ecut=    30.00 Ry     beta= 0.40
     Davidson diagonalization with overlap
     ethr =  7.39E-10,  avg # of iterations =  3.0

     negative rho (up, down):  1.322E+00 0.000E+00

     total cpu time spent up to now is     1179.7 secs

     total energy              =   -7657.82856015 Ry
     estimated scf accuracy    <       0.00000704 Ry

     iteration # 58     ecut=    30.00 Ry     beta= 0.40
     Davidson diagonalization with overlap
     ethr =  7.39E-10,  avg # of iterations =  3.0

     negative rho (up, down):  1.324E+00 0.000E+00

     total cpu time spent up to now is     1199.9 secs

     total energy              =   -7657.82856868 Ry
     estimated scf accuracy    <       0.00001921 Ry

     iteration # 59     ecut=    30.00 Ry     beta= 0.40
     Davidson diagonalization with overlap
     ethr =  7.39E-10,  avg # of iterations =  3.0

     negative rho (up, down):  1.326E+00 0.000E+00

     total cpu time spent up to now is     1219.8 secs

     total energy              =   -7657.82858288 Ry
     estimated scf accuracy    <       0.00001841 Ry

     iteration # 60     ecut=    30.00 Ry     beta= 0.40
     Davidson diagonalization with overlap
     ethr =  7.39E-10,  avg # of iterations =  3.0

     negative rho (up, down):  1.327E+00 0.000E+00

     total cpu time spent up to now is     1239.8 secs

     total energy              =   -7657.82857662 Ry
     estimated scf accuracy    <       0.00001519 Ry

     iteration # 61     ecut=    30.00 Ry     beta= 0.40
     Davidson diagonalization with overlap
     ethr =  7.39E-10,  avg # of iterations =  3.0

     negative rho (up, down):  1.328E+00 0.000E+00

     total cpu time spent up to now is     1259.7 secs

     total energy              =   -7657.82853409 Ry
     estimated scf accuracy    <       0.00001746 Ry

     iteration # 62     ecut=    30.00 Ry     beta= 0.40
     Davidson diagonalization with overlap
     ethr =  7.39E-10,  avg # of iterations =  3.0

     negative rho (up, down):  1.329E+00 0.000E+00

     total cpu time spent up to now is     1279.7 secs

     total energy              =   -7657.82849613 Ry
     estimated scf accuracy    <       0.00002754 Ry

     iteration # 63     ecut=    30.00 Ry     beta= 0.40
     Davidson diagonalization with overlap
     ethr =  7.39E-10,  avg # of iterations =  3.0

     negative rho (up, down):  1.330E+00 0.000E+00

     total cpu time spent up to now is     1299.7 secs

     total energy              =   -7657.82844765 Ry
     estimated scf accuracy    <       0.00003514 Ry

     iteration # 64     ecut=    30.00 Ry     beta= 0.40
     Davidson diagonalization with overlap
     ethr =  7.39E-10,  avg # of iterations =  3.0

     negative rho (up, down):  1.331E+00 0.000E+00

     total cpu time spent up to now is     1319.6 secs

     total energy              =   -7657.82839639 Ry
     estimated scf accuracy    <       0.00004367 Ry

     iteration # 65     ecut=    30.00 Ry     beta= 0.40
     Davidson diagonalization with overlap
     ethr =  7.39E-10,  avg # of iterations =  3.0

     negative rho (up, down):  1.332E+00 0.000E+00

     total cpu time spent up to now is     1339.7 secs

     total energy              =   -7657.82835508 Ry
     estimated scf accuracy    <       0.00005224 Ry

     iteration # 66     ecut=    30.00 Ry     beta= 0.40
     Davidson diagonalization with overlap
     ethr =  7.39E-10,  avg # of iterations =  3.0

     negative rho (up, down):  1.333E+00 0.000E+00

     total cpu time spent up to now is     1359.8 secs

     total energy              =   -7657.82836055 Ry
     estimated scf accuracy    <       0.00005923 Ry

     iteration # 67     ecut=    30.00 Ry     beta= 0.40
     Davidson diagonalization with overlap
     ethr =  7.39E-10,  avg # of iterations =  5.0

     negative rho (up, down):  1.333E+00 0.000E+00

     total cpu time spent up to now is     1380.1 secs

     total energy              =   -7657.82825172 Ry
     estimated scf accuracy    <       0.00006349 Ry

     iteration # 68     ecut=    30.00 Ry     beta= 0.40
     Davidson diagonalization with overlap
     ethr =  7.39E-10,  avg # of iterations =  5.0

     negative rho (up, down):  1.334E+00 0.000E+00

     total cpu time spent up to now is     1400.2 secs

     total energy              =   -7657.82824661 Ry
     estimated scf accuracy    <       0.00007468 Ry

     iteration # 69     ecut=    30.00 Ry     beta= 0.40
     Davidson diagonalization with overlap
     ethr =  7.39E-10,  avg # of iterations =  3.0

     negative rho (up, down):  1.335E+00 0.000E+00

     total cpu time spent up to now is     1420.2 secs

     total energy              =   -7657.82802017 Ry
     estimated scf accuracy    <       0.00007545 Ry

     iteration # 70     ecut=    30.00 Ry     beta= 0.40
     Davidson diagonalization with overlap
     ethr =  7.39E-10,  avg # of iterations =  3.0

     negative rho (up, down):  1.335E+00 0.000E+00

     total cpu time spent up to now is     1440.2 secs

     total energy              =   -7657.82793516 Ry
     estimated scf accuracy    <       0.00011146 Ry

     iteration # 71     ecut=    30.00 Ry     beta= 0.40
     Davidson diagonalization with overlap
     ethr =  7.39E-10,  avg # of iterations =  3.0

     negative rho (up, down):  1.335E+00 0.000E+00

     total cpu time spent up to now is     1460.1 secs

     total energy              =   -7657.82812398 Ry
     estimated scf accuracy    <       0.00011984 Ry

     iteration # 72     ecut=    30.00 Ry     beta= 0.40
     Davidson diagonalization with overlap
     ethr =  7.39E-10,  avg # of iterations =  5.0

     negative rho (up, down):  1.336E+00 0.000E+00

     total cpu time spent up to now is     1480.5 secs

     total energy              =   -7657.82808523 Ry
     estimated scf accuracy    <       0.00010445 Ry

     iteration # 73     ecut=    30.00 Ry     beta= 0.40
     Davidson diagonalization with overlap
     ethr =  7.39E-10,  avg # of iterations =  5.0

     negative rho (up, down):  1.336E+00 0.000E+00

     total cpu time spent up to now is     1500.7 secs

     total energy              =   -7657.82808198 Ry
     estimated scf accuracy    <       0.00009890 Ry

     iteration # 74     ecut=    30.00 Ry     beta= 0.40
     Davidson diagonalization with overlap
     ethr =  7.39E-10,  avg # of iterations =  5.0

     negative rho (up, down):  1.336E+00 0.000E+00

     total cpu time spent up to now is     1521.0 secs

     total energy              =   -7657.82817625 Ry
     estimated scf accuracy    <       0.00010794 Ry

     iteration # 75     ecut=    30.00 Ry     beta= 0.40
     Davidson diagonalization with overlap
     ethr =  7.39E-10,  avg # of iterations =  6.0

     negative rho (up, down):  1.336E+00 0.000E+00

     total cpu time spent up to now is     1541.4 secs

     total energy              =   -7657.82824029 Ry
     estimated scf accuracy    <       0.00010148 Ry

     iteration # 76     ecut=    30.00 Ry     beta= 0.40
     Davidson diagonalization with overlap
     ethr =  7.39E-10,  avg # of iterations =  5.0

     negative rho (up, down):  1.336E+00 0.000E+00

     total cpu time spent up to now is     1561.6 secs

     total energy              =   -7657.82823240 Ry
     estimated scf accuracy    <       0.00008173 Ry

     iteration # 77     ecut=    30.00 Ry     beta= 0.40
     Davidson diagonalization with overlap
     ethr =  7.39E-10,  avg # of iterations =  6.0

     negative rho (up, down):  1.336E+00 0.000E+00

     total cpu time spent up to now is     1582.1 secs

     total energy              =   -7657.82832574 Ry
     estimated scf accuracy    <       0.00009503 Ry

     iteration # 78     ecut=    30.00 Ry     beta= 0.40
     Davidson diagonalization with overlap
     ethr =  7.39E-10,  avg # of iterations =  6.0

     negative rho (up, down):  1.335E+00 0.000E+00

     total cpu time spent up to now is     1602.6 secs

     total energy              =   -7657.82868725 Ry
     estimated scf accuracy    <       0.00006735 Ry

     iteration # 79     ecut=    30.00 Ry     beta= 0.40
     Davidson diagonalization with overlap
     ethr =  7.39E-10,  avg # of iterations =  7.0

     negative rho (up, down):  1.335E+00 0.000E+00

     total cpu time spent up to now is     1624.0 secs

     total energy              =   -7657.82860357 Ry
     estimated scf accuracy    <       0.00012329 Ry

     iteration # 80     ecut=    30.00 Ry     beta= 0.40
     Davidson diagonalization with overlap
     ethr =  7.39E-10,  avg # of iterations =  7.0

     negative rho (up, down):  1.336E+00 0.000E+00

     total cpu time spent up to now is     1645.4 secs

     total energy              =   -7657.82865761 Ry
     estimated scf accuracy    <       0.00005663 Ry

     iteration # 81     ecut=    30.00 Ry     beta= 0.40
     Davidson diagonalization with overlap
     ethr =  7.39E-10,  avg # of iterations =  8.0

     negative rho (up, down):  1.336E+00 0.000E+00

     total cpu time spent up to now is     1666.2 secs

     total energy              =   -7657.82869985 Ry
     estimated scf accuracy    <       0.00002133 Ry

     iteration # 82     ecut=    30.00 Ry     beta= 0.40
     Davidson diagonalization with overlap
     ethr =  7.39E-10,  avg # of iterations =  6.0

     negative rho (up, down):  1.336E+00 0.000E+00

     total cpu time spent up to now is     1686.6 secs

     total energy              =   -7657.82870425 Ry
     estimated scf accuracy    <       0.00000309 Ry

     iteration # 83     ecut=    30.00 Ry     beta= 0.40
     Davidson diagonalization with overlap
     ethr =  4.76E-10,  avg # of iterations =  5.0

     negative rho (up, down):  1.336E+00 0.000E+00

     total cpu time spent up to now is     1706.6 secs

     total energy              =   -7657.82870679 Ry
     estimated scf accuracy    <       0.00000150 Ry

     iteration # 84     ecut=    30.00 Ry     beta= 0.40
     Davidson diagonalization with overlap
     ethr =  2.31E-10,  avg # of iterations =  3.0

     negative rho (up, down):  1.337E+00 0.000E+00

     total cpu time spent up to now is     1726.5 secs

     total energy              =   -7657.82870710 Ry
     estimated scf accuracy    <       0.00000104 Ry

     iteration # 85     ecut=    30.00 Ry     beta= 0.40
     Davidson diagonalization with overlap
     ethr =  1.60E-10,  avg # of iterations =  3.0

     negative rho (up, down):  1.337E+00 0.000E+00

     total cpu time spent up to now is     1746.5 secs

     total energy              =   -7657.82871118 Ry
     estimated scf accuracy    <       0.00000042 Ry

     iteration # 86     ecut=    30.00 Ry     beta= 0.40
     Davidson diagonalization with overlap
     ethr =  6.40E-11,  avg # of iterations =  5.0

     negative rho (up, down):  1.337E+00 0.000E+00

     total cpu time spent up to now is     1766.9 secs

     total energy              =   -7657.82871254 Ry
     estimated scf accuracy    <       0.00000093 Ry

     iteration # 87     ecut=    30.00 Ry     beta= 0.40
     Davidson diagonalization with overlap
     ethr =  6.40E-11,  avg # of iterations =  3.0

     negative rho (up, down):  1.337E+00 0.000E+00

     total cpu time spent up to now is     1787.0 secs

     total energy              =   -7657.82871291 Ry
     estimated scf accuracy    <       0.00000052 Ry

     iteration # 88     ecut=    30.00 Ry     beta= 0.40
     Davidson diagonalization with overlap
     ethr =  6.40E-11,  avg # of iterations =  3.0

     negative rho (up, down):  1.337E+00 0.000E+00

     total cpu time spent up to now is     1807.0 secs

     total energy              =   -7657.82870695 Ry
     estimated scf accuracy    <       0.00000018 Ry

     iteration # 89     ecut=    30.00 Ry     beta= 0.40
     Davidson diagonalization with overlap
     ethr =  2.70E-11,  avg # of iterations =  5.0

     negative rho (up, down):  1.337E+00 0.000E+00

     total cpu time spent up to now is     1827.5 secs

     total energy              =   -7657.82871700 Ry
     estimated scf accuracy    <       0.00000026 Ry

     iteration # 90     ecut=    30.00 Ry     beta= 0.40
     Davidson diagonalization with overlap
     ethr =  2.70E-11,  avg # of iterations =  5.0

     negative rho (up, down):  1.337E+00 0.000E+00

     total cpu time spent up to now is     1847.9 secs

     total energy              =   -7657.82872024 Ry
     estimated scf accuracy    <       0.00000012 Ry

     iteration # 91     ecut=    30.00 Ry     beta= 0.40
     Davidson diagonalization with overlap
     ethr =  1.81E-11,  avg # of iterations =  3.0

     negative rho (up, down):  1.337E+00 0.000E+00

     total cpu time spent up to now is     1868.2 secs

     total energy              =   -7657.82872260 Ry
     estimated scf accuracy    <       0.00000023 Ry

     iteration # 92     ecut=    30.00 Ry     beta= 0.40
     Davidson diagonalization with overlap
     ethr =  1.81E-11,  avg # of iterations =  3.0

     negative rho (up, down):  1.338E+00 0.000E+00

     total cpu time spent up to now is     1888.4 secs

     total energy              =   -7657.82872561 Ry
     estimated scf accuracy    <       0.00000025 Ry

     iteration # 93     ecut=    30.00 Ry     beta= 0.40
     Davidson diagonalization with overlap
     ethr =  1.81E-11,  avg # of iterations =  4.0

     negative rho (up, down):  1.338E+00 0.000E+00

     total cpu time spent up to now is     1908.7 secs

     total energy              =   -7657.82872490 Ry
     estimated scf accuracy    <       0.00000075 Ry

     iteration # 94     ecut=    30.00 Ry     beta= 0.40
     Davidson diagonalization with overlap
     ethr =  1.81E-11,  avg # of iterations =  4.0

     negative rho (up, down):  1.338E+00 0.000E+00

     total cpu time spent up to now is     1929.1 secs

     total energy              =   -7657.82872083 Ry
     estimated scf accuracy    <       0.00000201 Ry

     iteration # 95     ecut=    30.00 Ry     beta= 0.40
     Davidson diagonalization with overlap
     ethr =  1.81E-11,  avg # of iterations =  4.0

     negative rho (up, down):  1.338E+00 0.000E+00

     total cpu time spent up to now is     1949.5 secs

     total energy              =   -7657.82871353 Ry
     estimated scf accuracy    <       0.00000353 Ry

     iteration # 96     ecut=    30.00 Ry     beta= 0.40
     Davidson diagonalization with overlap
     ethr =  1.81E-11,  avg # of iterations =  4.0

     negative rho (up, down):  1.338E+00 0.000E+00

     total cpu time spent up to now is     1969.9 secs

     total energy              =   -7657.82870942 Ry
     estimated scf accuracy    <       0.00000542 Ry

     iteration # 97     ecut=    30.00 Ry     beta= 0.40
     Davidson diagonalization with overlap
     ethr =  1.81E-11,  avg # of iterations =  4.0

     negative rho (up, down):  1.338E+00 0.000E+00

     total cpu time spent up to now is     1990.1 secs

     total energy              =   -7657.82870572 Ry
     estimated scf accuracy    <       0.00000654 Ry

     iteration # 98     ecut=    30.00 Ry     beta= 0.40
     Davidson diagonalization with overlap
     ethr =  1.81E-11,  avg # of iterations =  4.0

     negative rho (up, down):  1.338E+00 0.000E+00

     total cpu time spent up to now is     2010.4 secs

     total energy              =   -7657.82869916 Ry
     estimated scf accuracy    <       0.00000754 Ry

     iteration # 99     ecut=    30.00 Ry     beta= 0.40
     Davidson diagonalization with overlap
     ethr =  1.81E-11,  avg # of iterations =  4.0

     negative rho (up, down):  1.338E+00 0.000E+00

     total cpu time spent up to now is     2030.9 secs

     total energy              =   -7657.82869293 Ry
     estimated scf accuracy    <       0.00000905 Ry

     iteration #100     ecut=    30.00 Ry     beta= 0.40
     Davidson diagonalization with overlap
     ethr =  1.81E-11,  avg # of iterations =  4.0

     negative rho (up, down):  1.338E+00 0.000E+00

     total cpu time spent up to now is     2051.2 secs

     total energy              =   -7657.82868371 Ry
     estimated scf accuracy    <       0.00001039 Ry

     iteration #101     ecut=    30.00 Ry     beta= 0.40
     Davidson diagonalization with overlap
     ethr =  1.81E-11,  avg # of iterations =  4.0

     negative rho (up, down):  1.338E+00 0.000E+00

     total cpu time spent up to now is     2071.5 secs

     total energy              =   -7657.82866643 Ry
     estimated scf accuracy    <       0.00001202 Ry

     iteration #102     ecut=    30.00 Ry     beta= 0.40
     Davidson diagonalization with overlap
     ethr =  1.81E-11,  avg # of iterations =  4.0

     negative rho (up, down):  1.338E+00 0.000E+00

     total cpu time spent up to now is     2091.8 secs

     total energy              =   -7657.82862949 Ry
     estimated scf accuracy    <       0.00001493 Ry

     iteration #103     ecut=    30.00 Ry     beta= 0.40
     Davidson diagonalization with overlap
     ethr =  1.81E-11,  avg # of iterations =  4.0

     negative rho (up, down):  1.338E+00 0.000E+00

     total cpu time spent up to now is     2112.3 secs

     total energy              =   -7657.82860118 Ry
     estimated scf accuracy    <       0.00002065 Ry

     iteration #104     ecut=    30.00 Ry     beta= 0.40
     Davidson diagonalization with overlap
     ethr =  1.81E-11,  avg # of iterations =  6.0

     negative rho (up, down):  1.339E+00 0.000E+00

     total cpu time spent up to now is     2133.3 secs

     total energy              =   -7657.82856271 Ry
     estimated scf accuracy    <       0.00002589 Ry

     iteration #105     ecut=    30.00 Ry     beta= 0.40
     Davidson diagonalization with overlap
     ethr =  1.81E-11,  avg # of iterations =  6.0

     negative rho (up, down):  1.339E+00 0.000E+00

     total cpu time spent up to now is     2153.9 secs

     total energy              =   -7657.82851755 Ry
     estimated scf accuracy    <       0.00003061 Ry

     iteration #106     ecut=    30.00 Ry     beta= 0.40
     Davidson diagonalization with overlap
     ethr =  1.81E-11,  avg # of iterations =  5.0

     negative rho (up, down):  1.339E+00 0.000E+00

     total cpu time spent up to now is     2174.6 secs

     total energy              =   -7657.82850738 Ry
     estimated scf accuracy    <       0.00003774 Ry

     iteration #107     ecut=    30.00 Ry     beta= 0.40
     Davidson diagonalization with overlap
     ethr =  1.81E-11,  avg # of iterations =  5.0

     negative rho (up, down):  1.338E+00 0.000E+00

     total cpu time spent up to now is     2195.1 secs

     total energy              =   -7657.82862933 Ry
     estimated scf accuracy    <       0.00003876 Ry

     iteration #108     ecut=    30.00 Ry     beta= 0.40
     Davidson diagonalization with overlap
     ethr =  1.81E-11,  avg # of iterations =  6.0

     negative rho (up, down):  1.338E+00 0.000E+00

     total cpu time spent up to now is     2215.9 secs

     total energy              =   -7657.82864670 Ry
     estimated scf accuracy    <       0.00002283 Ry

     iteration #109     ecut=    30.00 Ry     beta= 0.40
     Davidson diagonalization with overlap
     ethr =  1.81E-11,  avg # of iterations =  6.0

     negative rho (up, down):  1.338E+00 0.000E+00

     total cpu time spent up to now is     2236.9 secs

     total energy              =   -7657.82866829 Ry
     estimated scf accuracy    <       0.00001942 Ry

     iteration #110     ecut=    30.00 Ry     beta= 0.40
     Davidson diagonalization with overlap
     ethr =  1.81E-11,  avg # of iterations =  5.0

     negative rho (up, down):  1.338E+00 0.000E+00

     total cpu time spent up to now is     2257.2 secs

     total energy              =   -7657.82870846 Ry
     estimated scf accuracy    <       0.00001647 Ry

     iteration #111     ecut=    30.00 Ry     beta= 0.40
     Davidson diagonalization with overlap
     ethr =  1.81E-11,  avg # of iterations =  7.0

     negative rho (up, down):  1.338E+00 0.000E+00

     total cpu time spent up to now is     2278.3 secs

     total energy              =   -7657.82875598 Ry
     estimated scf accuracy    <       0.00001333 Ry

     iteration #112     ecut=    30.00 Ry     beta= 0.40
     Davidson diagonalization with overlap
     ethr =  1.81E-11,  avg # of iterations =  7.0

     negative rho (up, down):  1.338E+00 0.000E+00

     total cpu time spent up to now is     2299.5 secs

     total energy              =   -7657.82875861 Ry
     estimated scf accuracy    <       0.00000367 Ry

     iteration #113     ecut=    30.00 Ry     beta= 0.40
     Davidson diagonalization with overlap
     ethr =  1.81E-11,  avg # of iterations =  7.0

     negative rho (up, down):  1.338E+00 0.000E+00

     total cpu time spent up to now is     2320.6 secs

     total energy              =   -7657.82876020 Ry
     estimated scf accuracy    <       0.00000329 Ry

     iteration #114     ecut=    30.00 Ry     beta= 0.40
     Davidson diagonalization with overlap
     ethr =  1.81E-11,  avg # of iterations =  6.0

     negative rho (up, down):  1.338E+00 0.000E+00

     total cpu time spent up to now is     2341.5 secs

     total energy              =   -7657.82876006 Ry
     estimated scf accuracy    <       0.00000217 Ry

     iteration #115     ecut=    30.00 Ry     beta= 0.40
     Davidson diagonalization with overlap
     ethr =  1.81E-11,  avg # of iterations =  8.0

     negative rho (up, down):  1.338E+00 0.000E+00

     total cpu time spent up to now is     2362.5 secs

     total energy              =   -7657.82876557 Ry
     estimated scf accuracy    <       0.00000053 Ry

     iteration #116     ecut=    30.00 Ry     beta= 0.40
     Davidson diagonalization with overlap
     ethr =  1.81E-11,  avg # of iterations =  5.0

     negative rho (up, down):  1.339E+00 0.000E+00

     total cpu time spent up to now is     2382.9 secs

     End of self-consistent calculation

          k = 0.0000 0.0000 0.0000 ( 46193 PWs)   bands (ev):

   -57.3186 -57.2900 -57.2747 -57.2408 -57.2177 -57.2024 -57.1941 -57.1889
   -57.1818 -57.1701 -57.1549 -57.1447 -57.1386 -57.1291 -57.1268 -57.1252
   -57.1207 -57.1156 -57.1130 -57.1054 -57.1038 -57.0944 -57.0874 -57.0829
   -57.0787 -57.0737 -57.0699 -57.0545 -57.0071 -56.9899 -56.9786 -56.9713
   -35.6888 -33.7244 -33.7078 -33.6817 -33.6645 -33.6630 -33.6571 -33.6396
   -33.6353 -33.6279 -33.6199 -33.6126 -33.6104 -33.6038 -33.5902 -33.5869
   -33.5780 -33.5726 -33.5695 -33.5570 -33.5502 -33.5407 -33.5308 -33.5227
   -33.5201 -33.5089 -33.5080 -33.5038 -33.5004 -33.4818 -33.4785 -33.4684
   -33.4647 -33.4520 -33.4507 -33.4424 -33.4385 -33.4348 -33.4272 -33.4244
   -33.4195 -33.4173 -33.4046 -33.4025 -33.3975 -33.3887 -33.3847 -33.3783
   -33.3730 -33.3720 -33.3693 -33.3689 -33.3591 -33.3567 -33.3535 -33.3494
   -33.3455 -33.3434 -33.3398 -33.3382 -33.3286 -33.3253 -33.3236 -33.3171
   -33.3157 -33.3104 -33.3046 -33.3028 -33.2966 -33.2917 -33.2864 -33.2860
   -33.2824 -33.2764 -33.2735 -33.2706 -33.2631 -33.2583 -33.2565 -33.2483
   -33.2476 -33.2382 -33.2373 -33.2255 -33.2171 -33.2129 -33.2057 -33.1992
   -33.1871 -33.1844 -33.1718 -33.1571 -33.1461 -33.1419 -33.1298 -33.1242
   -33.1033 -18.7972 -18.4350 -18.3993 -17.6746 -17.5933 -17.4649 -17.4478
   -17.4314 -17.4098 -17.4012 -17.3998 -17.3880 -17.3861 -17.3432 -17.3289
   -17.2988 -17.2951 -17.2480 -17.2358 -17.2347 -17.2276 -17.2141 -17.2083
   -17.2030 -17.1994 -17.1913 -17.1829 -17.1780 -17.1440 -17.1315 -17.1283
   -17.0839 -17.0498 -17.0133 -16.9816 -10.2860  -9.9000  -9.8854  -9.8790
    -9.7549  -9.7443  -9.6949  -9.2402  -9.1681  -9.0313  -8.9844  -8.9563
    -8.9534  -8.8601  -8.8472  -8.8226  -5.4096  -5.3661  -5.3486  -4.9782
    -4.8444  -4.6377  -4.6318  -4.6018  -4.5802  -4.5727  -4.5481  -4.5327
    -4.5259  -4.5054  -4.3986  -4.3807  -4.3496  -4.3399  -4.3320  -4.3208
    -4.3144  -4.2795  -4.2755  -4.2596  -4.2432  -4.2411  -4.2336  -4.2241
    -4.1008  -4.0803  -4.0705  -4.0504  -4.0434  -3.9687  -3.9623  -3.9399
    -3.9331  -3.9080  -3.8874  -3.8799  -3.8536  -3.8484  -3.8430  -3.8339
    -3.8249  -3.7698  -3.7355  -3.5573  -3.5422  -3.5168  -3.5129  -3.5044
    -3.4817  -3.4743  -3.4713  -3.4667  -3.4547  -3.4441  -3.4375  -3.4246
    -3.4097  -3.4066  -3.3965  -3.3852  -3.3475  -3.3425  -3.3388  -3.3309
    -3.3056  -3.2793  -3.2694  -3.2620  -3.2561  -3.2491  -3.2458  -3.2406
    -3.2338  -3.2239  -3.1254  -3.1014  -3.0858  -3.0741  -3.0626  -3.0326
    -2.9984  -2.9948  -2.9421  -2.9378  -2.9028  -2.8920  -2.8903  -2.8723
    -2.8464  -2.7731  -2.7609  -2.7438  -2.5148  -2.4875  -2.4717  -2.1245
    -2.1165  -1.9956  -1.8964  -1.8752  -1.8523  -1.8411  -1.7944  -1.7846
    -1.7719  -1.7339  -1.7098  -1.7081  -1.6820  -1.6481  -1.6350  -1.6240
    -1.6019  -1.5827  -1.5075  -1.4821  -1.4559  -1.3894  -1.3380  -0.8413
    -0.8376  -0.8109  -0.6552  -0.6357  -0.6127  -0.5468  -0.4670  -0.4489
    -0.4329  -0.4147  -0.3748  -0.3323  -0.3026  -0.2630  -0.2316  -0.2124
    -0.1885  -0.1028   0.9589   0.9702   1.1078   1.1328   1.1793   1.5179
     1.6211   1.6488   1.6809   1.6935   1.7434   1.8308   1.8511   1.9026
     2.0910   2.1462   2.1525   2.1612   2.1809   2.2025   2.5763   2.6069
     2.6091   2.6224   2.6295   2.6540   2.6707   2.6760   2.7103   2.7142
     2.7378   2.7458   2.7728   2.7845   2.8420   2.8462   2.8827   2.8969
     2.9405   2.9468   2.9681   3.0039   3.0109   3.0191   3.0321   3.0412
     3.0499   3.0652   3.0741   3.0830   3.2764   3.2940   3.3334   3.3397
     3.3478   3.3586   3.3995   3.4127   3.4356   3.4392   3.4525   3.4595
     3.4801   3.4906   3.4918   3.5092   3.5123   3.5314

     the Fermi energy is     1.1065 ev

!    total energy              =   -7657.82876821 Ry
     estimated scf accuracy    <       0.00000004 Ry
     smearing contrib. (-TS)   =      -0.00401621 Ry
     internal energy E=F+TS    =   -7657.82475201 Ry

     The total energy is F=E-TS. E is the sum of the following terms:
     one-electron contribution =  -36392.09000663 Ry
     hartree contribution      =   18266.67868216 Ry
     xc contribution           =    -891.40399899 Ry
     ewald contribution        =   13959.21705797 Ry
     one-center paw contrib.   =   -2600.22648652 Ry

     convergence has been achieved in 116 iterations

     negative rho (up, down):  1.339E+00 0.000E+00

     Forces acting on atoms (cartesian axes, Ry/au):

     atom    1 type  1   force =     0.01358229    0.00339491    0.01164815
     atom    2 type  1   force =     0.00298238    0.00081914    0.00510908
     atom    3 type  1   force =    -0.01807784   -0.00181115    0.02601099
     atom    4 type  1   force =    -0.00434858    0.00119315    0.00489495
     atom    5 type  1   force =     0.03165644    0.00623897    0.02179819
     atom    6 type  1   force =     0.01605936    0.01737611    0.01505100
     atom    7 type  1   force =     0.00255538   -0.00020446    0.00461168
     atom    8 type  1   force =     0.00632092   -0.03172774    0.02091295
     atom    9 type  1   force =    -0.01204788    0.00447399    0.00880242
     atom   10 type  1   force =     0.00033753   -0.01301261    0.01026493
     atom   11 type  1   force =     0.00564064   -0.00163468    0.00427963
     atom   12 type  1   force =    -0.00875837   -0.01442993    0.01386299
     atom   13 type  1   force =     0.00016461   -0.00109214    0.00187804
     atom   14 type  1   force =    -0.01862123   -0.00183806    0.01027621
     atom   15 type  1   force =    -0.01804308    0.01919108    0.01247178
     atom   16 type  1   force =     0.00130835    0.00117528    0.00145627
     atom   17 type  2   force =    -0.00616544   -0.00266530    0.00828244
     atom   18 type  2   force =    -0.00739467   -0.00543156    0.00527982
     atom   19 type  2   force =     0.00396836    0.00278712    0.00620739
     atom   20 type  2   force =    -0.00155276    0.01453549    0.00488855
     atom   21 type  2   force =     0.03100013   -0.01768241   -0.00630923
     atom   22 type  2   force =     0.00283619   -0.00504469    0.00376971
     atom   23 type  2   force =     0.01630279   -0.00510417    0.00817683
     atom   24 type  2   force =     0.00367093   -0.00678349    0.00613020
     atom   25 type  2   force =    -0.01730843   -0.01181963    0.00746267
     atom   26 type  2   force =    -0.00497852    0.00405752    0.00353307
     atom   27 type  2   force =    -0.00114321    0.00036888   -0.00261189
     atom   28 type  2   force =     0.01640964    0.00916532    0.01589631
     atom   29 type  2   force =     0.03823741    0.02964210    0.01845153
     atom   30 type  2   force =     0.00141545    0.00944059    0.00332132
     atom   31 type  2   force =     0.00272108    0.01424508    0.00671084
     atom   32 type  2   force =    -0.02222586   -0.03904686    0.03305292
     atom   33 type  2   force =    -0.00203701    0.02819638   -0.00541998
     atom   34 type  2   force =     0.01055311   -0.00836977    0.00477944
     atom   35 type  2   force =     0.00800231   -0.01045762    0.00605284
     atom   36 type  2   force =    -0.03922975    0.00238862    0.03188120
     atom   37 type  2   force =    -0.01476794    0.00097244    0.00802768
     atom   38 type  2   force =    -0.00252925    0.00549607    0.00482915
     atom   39 type  2   force =    -0.01633896   -0.00570759    0.00568597
     atom   40 type  2   force =    -0.00531430   -0.00022747   -0.00010797
     atom   41 type  2   force =     0.00557729    0.00194350    0.00656334
     atom   42 type  2   force =     0.00698778    0.00268710    0.00407252
     atom   43 type  2   force =    -0.00694588   -0.00502054    0.00628894
     atom   44 type  2   force =     0.00928747   -0.00219238    0.00499781
     atom   45 type  2   force =    -0.00179480   -0.00389476    0.00019278
     atom   46 type  2   force =    -0.00649649   -0.01522007    0.01013368
     atom   47 type  2   force =     0.00006466   -0.00059164   -0.00013706
     atom   48 type  2   force =    -0.00364696    0.01313573    0.00642588
     atom   49 type  4   force =     0.00956868   -0.04262001   -0.01934104
     atom   50 type  4   force =    -0.02794495    0.02483608   -0.02860140
     atom   51 type  4   force =    -0.01298118   -0.01121244   -0.03262405
     atom   52 type  4   force =    -0.01681675    0.01726494    0.00100856
     atom   53 type  4   force =    -0.02296959    0.01296661   -0.01890815
     atom   54 type  4   force =     0.00118676   -0.02335096   -0.01990991
     atom   55 type  4   force =     0.00174429   -0.01511129    0.00407423
     atom   56 type  4   force =    -0.00126952   -0.00150670    0.00709652
     atom   57 type  4   force =     0.00494745    0.02952913   -0.02398634
     atom   58 type  4   force =    -0.03296929   -0.00578209   -0.04048419
     atom   59 type  4   force =     0.05948518    0.03028741   -0.05780325
     atom   60 type  4   force =    -0.00205648    0.02690690   -0.01642240
     atom   61 type  4   force =     0.00897129    0.04177614   -0.00918950
     atom   62 type  4   force =     0.01632322   -0.01227401   -0.01566818
     atom   63 type  4   force =    -0.00005964    0.00236663    0.00586288
     atom   64 type  4   force =     0.02761343   -0.00945548   -0.02449957
     atom   65 type  4   force =     0.03462457   -0.01149914   -0.00445112
     atom   66 type  4   force =     0.01340903    0.00887386   -0.00426465
     atom   67 type  4   force =     0.01119764    0.00682875   -0.00809916
     atom   68 type  4   force =    -0.04071631   -0.03077656    0.00025985
     atom   69 type  4   force =     0.00377192    0.00872741   -0.00853411
     atom   70 type  4   force =    -0.00208259    0.00175560   -0.01547605
     atom   71 type  4   force =     0.00097403   -0.00238148    0.00037977
     atom   72 type  4   force =     0.01071260   -0.00272706   -0.01158841
     atom   73 type  4   force =    -0.00416402    0.00192911    0.00334528
     atom   74 type  4   force =    -0.02668838    0.00831756   -0.01160828
     atom   75 type  4   force =     0.00270962   -0.00369559    0.00569389
     atom   76 type  4   force =    -0.00305049   -0.00084165   -0.02263410
     atom   77 type  4   force =    -0.01757203   -0.01690231   -0.01556904
     atom   78 type  4   force =    -0.00194672   -0.01846719    0.00006682
     atom   79 type  4   force =     0.01219924    0.00414437   -0.00847138
     atom   80 type  4   force =    -0.00105118    0.00365204    0.00345037
     atom   81 type  3   force =    -0.00297511   -0.00347239   -0.00294186

     Total force =     0.238183     Total SCF correction =     0.000892


     Computing stress (Cartesian axis) and pressure


     negative rho (up, down):  1.339E+00 0.000E+00
          total   stress  (Ry/bohr**3)                   (kbar)     P=     -110.73
  -0.00076985   0.00000282  -0.00000086         -113.25        0.41       -0.13
   0.00000282  -0.00077306   0.00000050            0.41     -113.72        0.07
  -0.00000086   0.00000050  -0.00071535           -0.13        0.07     -105.23


     Writing all to output data dir /root/qe_scratch/cand159_B_Ti2CO2_Sr.save/ :
     XML data file, charge density, pseudopotentials, collected wavefunctions
 
     init_run     :     20.77s CPU     26.12s WALL (       1 calls)
     electrons    :   1952.27s CPU   2355.93s WALL (       1 calls)
     forces       :      1.77s CPU      1.85s WALL (       1 calls)
     stress       :      2.78s CPU      2.82s WALL (       1 calls)

     Called by init_run:
     wfcinit      :      0.96s CPU      1.16s WALL (       1 calls)
     potinit      :     18.53s CPU     23.17s WALL (       1 calls)
     hinit0       :      0.71s CPU      0.82s WALL (       1 calls)

     Called by electrons:
     c_bands      :    224.50s CPU    224.85s WALL (     116 calls)
     sum_band     :     29.04s CPU     29.15s WALL (     116 calls)
     v_of_rho     :      9.75s CPU     12.83s WALL (     117 calls)
     newd         :     37.12s CPU     37.40s WALL (     117 calls)
                                       37.40s GPU  (     117 calls)
     PAW_pot      :   1640.88s CPU   2040.15s WALL (     117 calls)
     mix_rho      :      7.47s CPU      7.69s WALL (     116 calls)

     Called by c_bands:
     init_us_2    :      0.67s CPU      0.69s WALL (     233 calls)
     cegterg      :    221.88s CPU    222.13s WALL (     116 calls)

     Called by *egterg:
     cdiaghg      :     22.62s CPU     22.67s WALL (     712 calls)
                                       22.67s GPU  (     712 calls)
     h_psi        :     86.03s CPU     86.41s WALL (     713 calls)
                                       86.37s GPU  (     713 calls)
     s_psi        :      1.93s CPU      1.94s WALL (     713 calls)
     g_psi        :      0.00s CPU      0.29s WALL (     596 calls)
                                        0.28s GPU  (     596 calls)

     Called by h_psi:
     h_psi:calbec :      0.11s CPU     32.83s WALL (     713 calls)
                                       32.83s GPU  (     713 calls)
     vloc_psi     :     26.90s CPU     27.07s WALL (     713 calls)
                                       27.07s GPU  (     713 calls)
     add_vuspsi   :      1.99s CPU     26.31s WALL (     713 calls)
                                       26.31s GPU  (     713 calls)

     General routines
     calbec       :      0.11s CPU      0.28s WALL (     834 calls)
     fft          :     11.38s CPU     15.00s WALL (    1544 calls)
                                        0.30s GPU  (    1427 calls)
     ffts         :      5.71s CPU      7.14s WALL (     233 calls)
                                        0.02s GPU  (     116 calls)
     fftw         :      0.25s CPU     26.83s WALL (   18198 calls)
                                       26.77s GPU  (   18198 calls)
     interpolate  :     18.14s CPU     23.00s WALL (     117 calls)
 
     Parallel routines
 
     PWSCF        :  32m58.65s CPU  39m48.12s WALL

 
   This run was terminated on:  14:53:57   6May2026            

=------------------------------------------------------------------------------=
   JOB DONE.
=------------------------------------------------------------------------------=
Warning: ieee_invalid is signaling
Warning: ieee_divide_by_zero is signaling
Warning: ieee_underflow is signaling
Warning: ieee_inexact is signaling
FORTRAN STOP
