--------------------------------------------------------------------------
WARNING: Open MPI tried to bind a process but failed.  This is a
warning only; your job will continue, though performance may
be degraded.

  Local host:        3253031b5b37
  Application name:  /root/qe-7.3.1/bin/pw.x
  Error message:     failed to bind memory
  Location:          ../../../../../orte/mca/rtc/hwloc/rtc_hwloc.c:447

--------------------------------------------------------------------------

     Program PWSCF v.7.3.1 starts on  6May2026 at 13: 8:35 

     This program is part of the open-source Quantum ESPRESSO suite
     for quantum simulation of materials; please cite
         "P. Giannozzi et al., J. Phys.:Condens. Matter 21 395502 (2009);
         "P. Giannozzi et al., J. Phys.:Condens. Matter 29 465901 (2017);
         "P. Giannozzi et al., J. Chem. Phys. 152 154105 (2020);
          URL http://www.quantum-espresso.org", 
     in publications or presentations arising from this work. More details at
     http://www.quantum-espresso.org/quote

     Parallel version (MPI & OpenMP), running on       8 processor cores
     Number of MPI processes:                 1
     Threads/MPI process:                     8

     MPI processes distributed on     1 nodes
     83636 MiB available memory on the printing compute node when the environment starts
 
     Reading input from cand034_B_Mo2CO2_Bi.in

     Current dimensions of program PWSCF are:
     Max number of different atomic species (ntypx) = 10
     Max number of k-points (npk) =  40000
     Max angular momentum in pseudopotentials (lmaxx) =  4
     file Bi.UPF: wavefunction(s)  6P 5D renormalized
     file Mo.UPF: wavefunction(s)  4S 4D renormalized
 
     Subspace diagonalization in iterative solution of the eigenvalue problem:
     a serial algorithm will be used

 
     G-vector sticks info
     --------------------
     sticks:   dense  smooth     PW     G-vecs:    dense   smooth      PW
     Sum        6763    4507   1135               722649   393377   49103
 
     Using Slab Decomposition
 


     bravais-lattice index     =            0
     lattice parameter (alat)  =      23.3763  a.u.
     unit-cell volume          =   17727.8633 (a.u.)^3
     number of atoms/cell      =           81
     number of atomic types    =            4
     number of electrons       =       719.00
     number of Kohn-Sham states=          432
     kinetic-energy cutoff     =      30.0000  Ry
     charge density cutoff     =     180.0000  Ry
     scf convergence threshold =      1.0E-07
     mixing beta               =       0.4000
     number of iterations used =            8  plain     mixing
     Exchange-correlation= SLA  PW   PBX  PBC
                           (   1   4   3   4   0   0   0)

     GPU acceleration is ACTIVE.  1 visible GPUs per MPI rank


     celldm(1)=  23.376269  celldm(2)=   0.000000  celldm(3)=   0.000000
     celldm(4)=   0.000000  celldm(5)=   0.000000  celldm(6)=   0.000000

     crystal axes: (cart. coord. in units of alat)
               a(1) = (   1.000000   0.000000   0.000000 )  
               a(2) = (  -0.500000   0.866025   0.000000 )  
               a(3) = (   0.000000   0.000000   1.602508 )  

     reciprocal axes: (cart. coord. in units 2 pi/alat)
               b(1) = (  1.000000  0.577350 -0.000000 )  
               b(2) = (  0.000000  1.154701  0.000000 )  
               b(3) = (  0.000000 -0.000000  0.624022 )  


     PseudoPot. # 1 for Bi read from file:
     /root/qe_pseudos/Bi.UPF
     MD5 check sum: 266ded784ae3bc462508ed03f0f37963
     Pseudo is Projector augmented-wave + core cor, Zval = 15.0
     Generated using &quot;atomic&quot; code by A. Dal Corso  v.6.2.2
     Shape of augmentation charge: PSQ
     Using radial grid of 1283 points,  6 beta functions with: 
                l(1) =   0
                l(2) =   0
                l(3) =   1
                l(4) =   1
                l(5) =   2
                l(6) =   2
     Q(r) pseudized with 0 coefficients 


     PseudoPot. # 2 for C  read from file:
     /root/qe_pseudos/C.UPF
     MD5 check sum: 9b35a7431356f8229172919cb1fa74b8
     Pseudo is Norm-conserving, Zval =  4.0
     Generated by new atomic code, or converted to UPF format
     Using radial grid of 1073 points,  1 beta functions with: 
                l(1) =   0

     PseudoPot. # 3 for Mo read from file:
     /root/qe_pseudos/Mo.UPF
     MD5 check sum: 4396e0c640fcce5c25f020efccf1ab12
     Pseudo is Projector augmented-wave + core cor, Zval = 14.0
     Generated using &quot;atomic&quot; code by A. Dal Corso  v.6.3
     Shape of augmentation charge: PSQ
     Using radial grid of 1229 points,  6 beta functions with: 
                l(1) =   0
                l(2) =   0
                l(3) =   1
                l(4) =   1
                l(5) =   2
                l(6) =   2
     Q(r) pseudized with 0 coefficients 


     PseudoPot. # 4 for O  read from file:
     /root/qe_pseudos/O.UPF
     MD5 check sum: c7f41d994d4e90c1781f5cd713c45011
     Pseudo is Projector augmented-wave + core cor, Zval =  6.0
     Generated using "atomic" code by A. Dal Corso (espresso distribution)
     Shape of augmentation charge: BESSEL
     Using radial grid of 1095 points,  4 beta functions with: 
                l(1) =   0
                l(2) =   0
                l(3) =   1
                l(4) =   1
     Q(r) pseudized with 0 coefficients 


     atomic species   valence    mass     pseudopotential
     Bi               15.00   208.98040     Bi( 1.00)
     C                 4.00    12.01100     C ( 1.00)
     Mo               14.00    95.95000     Mo( 1.00)
     O                 6.00    15.99900     O ( 1.00)

     No symmetry found



   Cartesian axes

     site n.     atom                  positions (alat units)
         1        C      tau(   1) = (   0.1230918   0.6509561   0.8003335  )
         2        C      tau(   2) = (  -0.3762241   0.6515983   0.8013024  )
         3        C      tau(   3) = (   0.0000345   0.4350395   0.7980741  )
         4        C      tau(   4) = (   0.3719151   0.2170024   0.8011296  )
         5        C      tau(   5) = (   0.7482435  -0.0009710   0.7980419  )
         6        C      tau(   6) = (  -0.2489241   0.4300606   0.8010590  )
         7        C      tau(   7) = (   0.2517083  -0.0010432   0.7980359  )
         8        C      tau(   8) = (   0.6274190   0.2165034   0.8013191  )
         9        C      tau(   9) = (   0.1212796   0.2144780   0.8060221  )
        10        C      tau(  10) = (  -0.1213980   0.2143730   0.8060584  )
        11        C      tau(  11) = (   0.4999886   0.4330027   0.8049716  )
        12        C      tau(  12) = (  -0.1227173   0.6504146   0.8003682  )
        13        C      tau(  13) = (   0.0001095   0.0041766   0.8061018  )
        14        C      tau(  14) = (   0.3769707   0.6519111   0.8010628  )
        15        C      tau(  15) = (   0.4996512  -0.0022490   0.8002632  )
        16        C      tau(  16) = (   0.2488367   0.4308560   0.8013054  )
        17        Mo     tau(  17) = (   0.6224639   0.0697425   0.8918337  )
        18        Mo     tau(  18) = (   0.3779866   0.3627435   0.7086429  )
        19        Mo     tau(  19) = (   0.4999218   0.2845404   0.8906623  )
        20        Mo     tau(  20) = (   0.0000794   0.7219385   0.9062060  )
        21        Mo     tau(  21) = (   0.2539181   0.5755467   0.7093056  )
        22        Mo     tau(  22) = (  -0.0000892   0.1441598   0.7070662  )
        23        Mo     tau(  23) = (   0.1244170   0.7937343   0.7083339  )
        24        Mo     tau(  24) = (   0.2477746   0.7203683   0.8918531  )
        25        Mo     tau(  25) = (   0.7516616   0.1483650   0.7089691  )
        26        Mo     tau(  26) = (   0.8657266   0.0670236   0.8884005  )
        27        Mo     tau(  27) = (   0.6218502   0.3624397   0.7086422  )
        28        Mo     tau(  28) = (   0.7530619   0.2866039   0.8963661  )
        29        Mo     tau(  29) = (   0.5002117   0.5737879   0.7086302  )
        30        Mo     tau(  30) = (   0.6286075   0.5071651   0.8906355  )
        31        Mo     tau(  31) = (   0.3793794   0.7942541   0.7087826  )
        32        Mo     tau(  32) = (   0.5002156   0.7252910   0.8963572  )
        33        Mo     tau(  33) = (   0.3714465   0.5072915   0.8906561  )
        34        Mo     tau(  34) = (  -0.1246543   0.7933050   0.7082922  )
        35        Mo     tau(  35) = (   0.4995656   0.1487537   0.7092517  )
        36        Mo     tau(  36) = (  -0.2466860   0.7206633   0.8918011  )
        37        Mo     tau(  37) = (  -0.1250923   0.5078084   0.8917868  )
        38        Mo     tau(  38) = (  -0.2534684   0.5748900   0.7093013  )
        39        Mo     tau(  39) = (   0.2474903   0.1479608   0.7087819  )
        40        Mo     tau(  40) = (   0.3772619   0.0708103   0.8918712  )
        41        Mo     tau(  41) = (   0.1276203   0.3574184   0.7089924  )
        42        Mo     tau(  42) = (   0.2466767   0.2870374   0.8963777  )
        43        Mo     tau(  43) = (  -0.1268331   0.3568556   0.7087882  )
        44        Mo     tau(  44) = (   0.0001823   0.2993511   0.8884755  )
        45        Mo     tau(  45) = (  -0.3793241   0.7933048   0.7089669  )
        46        Mo     tau(  46) = (   0.1242808   0.5086099   0.8917642  )
        47        Mo     tau(  47) = (   0.0002191   0.5778362   0.7081531  )
        48        Mo     tau(  48) = (   0.1341868   0.0668270   0.8884650  )
        49        O      tau(  49) = (  -0.2498405   0.5773243   0.9849951  )
        50        O      tau(  50) = (   0.7488444   0.1439762   0.9846490  )
        51        O      tau(  51) = (   0.8775827   0.0737860   0.6168741  )
        52        O      tau(  52) = (   0.0000976   0.2856017   0.6169956  )
        53        O      tau(  53) = (   0.6234898   0.5043077   0.6159066  )
        54        O      tau(  54) = (   0.6266491   0.3597761   0.9804745  )
        55        O      tau(  55) = (   0.7497044   0.2888184   0.6167571  )
        56        O      tau(  56) = (  -0.1254408   0.3617701   0.9846936  )
        57        O      tau(  57) = (  -0.1244387   0.5041069   0.6208366  )
        58        O      tau(  58) = (   0.0000200   0.1443695   0.9957816  )
        59        O      tau(  59) = (   0.1222973   0.0735924   0.6169444  )
        60        O      tau(  60) = (   0.5000939   0.5793158   0.9804780  )
        61        O      tau(  61) = (   0.3744051   0.7930138   0.9846997  )
        62        O      tau(  62) = (  -0.0003420   0.5764712   0.9867406  )
        63        O      tau(  63) = (   0.1260166   0.7940492   0.9869639  )
        64        O      tau(  64) = (  -0.1256676   0.7946064   0.9869360  )
        65        O      tau(  65) = (  -0.0000200   0.7216715   0.6152684  )
        66        O      tau(  66) = (   0.5000199   0.7213644   0.6167512  )
        67        O      tau(  67) = (   0.2502650   0.2888537   0.6167797  )
        68        O      tau(  68) = (   0.1253001   0.3620331   0.9846615  )
        69        O      tau(  69) = (   0.4998917   0.1441768   0.9849860  )
        70        O      tau(  70) = (   0.6256161   0.0724666   0.6208566  )
        71        O      tau(  71) = (   0.2506539   0.7227072   0.6208860  )
        72        O      tau(  72) = (   0.3737856   0.0722329   0.6209234  )
        73        O      tau(  73) = (   0.5000100   0.2904269   0.6158578  )
        74        O      tau(  74) = (   0.2510060   0.1442359   0.9847401  )
        75        O      tau(  75) = (   0.2499267   0.5775135   0.9850100  )
        76        O      tau(  76) = (   0.3765081   0.5042832   0.6159107  )
        77        O      tau(  77) = (  -0.2505579   0.7220827   0.6208023  )
        78        O      tau(  78) = (  -0.3741264   0.7930118   0.9846194  )
        79        O      tau(  79) = (   0.1249291   0.5044888   0.6207890  )
        80        O      tau(  80) = (   0.3732489   0.3599459   0.9804764  )
        81        Bi     tau(  81) = (   0.0000278   0.1443853   1.1295814  )

     number of k points=     1  Methfessel-Paxton smearing, width (Ry)=  0.0100
                       cart. coord. in units 2pi/alat
        k(    1) = (   0.0000000   0.0000000   0.0000000), wk =   2.0000000

     Dense  grid:   722649 G-vectors     FFT dimensions: ( 100, 100, 160)

     Smooth grid:   393377 G-vectors     FFT dimensions: (  81,  81, 135)

     Estimated max dynamical RAM per process >       4.44 GB

     Check: negative core charge=   -0.000003

     Initial potential from superposition of free atoms

     starting charge     710.9713, renormalised to     719.0000

     negative rho (up, down):  8.007E-02 0.000E+00
     Starting wfcs are  585 randomized atomic wfcs
     Checking if some PAW data can be deallocated... 

     total cpu time spent up to now is       29.5 secs

     Self-consistent Calculation

     iteration #  1     ecut=    30.00 Ry     beta= 0.40
     Davidson diagonalization with overlap
     ethr =  1.00E-02,  avg # of iterations =  3.0

     negative rho (up, down):  8.757E-02 0.000E+00

     total cpu time spent up to now is       50.2 secs

     total energy              =  -14050.98936863 Ry
     estimated scf accuracy    <      41.90648173 Ry

     iteration #  2     ecut=    30.00 Ry     beta= 0.40
     Davidson diagonalization with overlap
     ethr =  5.83E-03,  avg # of iterations =  6.0

     negative rho (up, down):  9.223E-02 0.000E+00

     total cpu time spent up to now is       71.1 secs

     total energy              =  -14051.29430303 Ry
     estimated scf accuracy    <      51.43011877 Ry

     iteration #  3     ecut=    30.00 Ry     beta= 0.40
     Davidson diagonalization with overlap
     ethr =  5.83E-03,  avg # of iterations =  5.0

     negative rho (up, down):  9.465E-02 0.000E+00

     total cpu time spent up to now is       91.5 secs

     total energy              =  -14043.35186565 Ry
     estimated scf accuracy    <     506.90346720 Ry

     iteration #  4     ecut=    30.00 Ry     beta= 0.40
     Davidson diagonalization with overlap
     ethr =  5.83E-03,  avg # of iterations =  3.0

     negative rho (up, down):  9.692E-02 0.000E+00

     total cpu time spent up to now is      111.8 secs

     total energy              =  -14062.82267155 Ry
     estimated scf accuracy    <      16.03814359 Ry

     iteration #  5     ecut=    30.00 Ry     beta= 0.40
     Davidson diagonalization with overlap
     ethr =  2.23E-03,  avg # of iterations =  3.0

     negative rho (up, down):  9.864E-02 0.000E+00

     total cpu time spent up to now is      132.0 secs

     total energy              =  -14063.44004600 Ry
     estimated scf accuracy    <       6.94251910 Ry

     iteration #  6     ecut=    30.00 Ry     beta= 0.40
     Davidson diagonalization with overlap
     ethr =  9.66E-04,  avg # of iterations =  8.0

     negative rho (up, down):  9.981E-02 0.000E+00

     total cpu time spent up to now is      152.5 secs

     total energy              =  -14063.74354613 Ry
     estimated scf accuracy    <       1.69742472 Ry

     iteration #  7     ecut=    30.00 Ry     beta= 0.40
     Davidson diagonalization with overlap
     ethr =  2.36E-04,  avg # of iterations =  7.0

     negative rho (up, down):  1.008E-01 0.000E+00

     total cpu time spent up to now is      173.1 secs

     total energy              =  -14063.80880119 Ry
     estimated scf accuracy    <       0.79962497 Ry

     iteration #  8     ecut=    30.00 Ry     beta= 0.40
     Davidson diagonalization with overlap
     ethr =  1.11E-04,  avg # of iterations =  3.0

     negative rho (up, down):  1.020E-01 0.000E+00

     total cpu time spent up to now is      193.4 secs

     total energy              =  -14063.76545609 Ry
     estimated scf accuracy    <       1.46519799 Ry

     iteration #  9     ecut=    30.00 Ry     beta= 0.40
     Davidson diagonalization with overlap
     ethr =  1.11E-04,  avg # of iterations =  2.0

     negative rho (up, down):  1.034E-01 0.000E+00

     total cpu time spent up to now is      213.7 secs

     total energy              =  -14063.74309242 Ry
     estimated scf accuracy    <       1.50853888 Ry

     iteration # 10     ecut=    30.00 Ry     beta= 0.40
     Davidson diagonalization with overlap
     ethr =  1.11E-04,  avg # of iterations =  1.0

     negative rho (up, down):  1.039E-01 0.000E+00

     total cpu time spent up to now is      233.6 secs

     total energy              =  -14063.76773198 Ry
     estimated scf accuracy    <       1.23031838 Ry

     iteration # 11     ecut=    30.00 Ry     beta= 0.40
     Davidson diagonalization with overlap
     ethr =  1.11E-04,  avg # of iterations =  1.0

     negative rho (up, down):  1.054E-01 0.000E+00

     total cpu time spent up to now is      253.3 secs

     total energy              =  -14063.81507447 Ry
     estimated scf accuracy    <       0.22446702 Ry

     iteration # 12     ecut=    30.00 Ry     beta= 0.40
     Davidson diagonalization with overlap
     ethr =  3.12E-05,  avg # of iterations =  2.0

     negative rho (up, down):  1.061E-01 0.000E+00

     total cpu time spent up to now is      273.5 secs

     total energy              =  -14063.82095997 Ry
     estimated scf accuracy    <       0.15054054 Ry

     iteration # 13     ecut=    30.00 Ry     beta= 0.40
     Davidson diagonalization with overlap
     ethr =  2.09E-05,  avg # of iterations =  1.0

     negative rho (up, down):  1.066E-01 0.000E+00

     total cpu time spent up to now is      293.4 secs

     total energy              =  -14063.82481906 Ry
     estimated scf accuracy    <       0.06165113 Ry

     iteration # 14     ecut=    30.00 Ry     beta= 0.40
     Davidson diagonalization with overlap
     ethr =  8.57E-06,  avg # of iterations =  3.0

     negative rho (up, down):  1.069E-01 0.000E+00

     total cpu time spent up to now is      313.7 secs

     total energy              =  -14063.81906098 Ry
     estimated scf accuracy    <       0.21288097 Ry

     iteration # 15     ecut=    30.00 Ry     beta= 0.40
     Davidson diagonalization with overlap
     ethr =  8.57E-06,  avg # of iterations =  2.0

     negative rho (up, down):  1.071E-01 0.000E+00

     total cpu time spent up to now is      333.9 secs

     total energy              =  -14063.82660923 Ry
     estimated scf accuracy    <       0.04330525 Ry

     iteration # 16     ecut=    30.00 Ry     beta= 0.40
     Davidson diagonalization with overlap
     ethr =  6.02E-06,  avg # of iterations =  3.0

     negative rho (up, down):  1.074E-01 0.000E+00

     total cpu time spent up to now is      354.1 secs

     total energy              =  -14063.82425728 Ry
     estimated scf accuracy    <       0.15461931 Ry

     iteration # 17     ecut=    30.00 Ry     beta= 0.40
     Davidson diagonalization with overlap
     ethr =  6.02E-06,  avg # of iterations =  2.0

     negative rho (up, down):  1.071E-01 0.000E+00

     total cpu time spent up to now is      374.3 secs

     total energy              =  -14063.82929716 Ry
     estimated scf accuracy    <       0.02455378 Ry

     iteration # 18     ecut=    30.00 Ry     beta= 0.40
     Davidson diagonalization with overlap
     ethr =  3.41E-06,  avg # of iterations =  3.0

     negative rho (up, down):  1.071E-01 0.000E+00

     total cpu time spent up to now is      394.7 secs

     total energy              =  -14063.82621817 Ry
     estimated scf accuracy    <       0.18462167 Ry

     iteration # 19     ecut=    30.00 Ry     beta= 0.40
     Davidson diagonalization with overlap
     ethr =  3.41E-06,  avg # of iterations =  2.0

     negative rho (up, down):  1.073E-01 0.000E+00

     total cpu time spent up to now is      414.9 secs

     total energy              =  -14063.83133211 Ry
     estimated scf accuracy    <       0.01260205 Ry

     iteration # 20     ecut=    30.00 Ry     beta= 0.40
     Davidson diagonalization with overlap
     ethr =  1.75E-06,  avg # of iterations =  2.0

     negative rho (up, down):  1.073E-01 0.000E+00

     total cpu time spent up to now is      435.1 secs

     total energy              =  -14063.83158011 Ry
     estimated scf accuracy    <       0.00159349 Ry

     iteration # 21     ecut=    30.00 Ry     beta= 0.40
     Davidson diagonalization with overlap
     ethr =  2.22E-07,  avg # of iterations =  3.0

     negative rho (up, down):  1.074E-01 0.000E+00

     total cpu time spent up to now is      455.4 secs

     total energy              =  -14063.83135677 Ry
     estimated scf accuracy    <       0.00998833 Ry

     iteration # 22     ecut=    30.00 Ry     beta= 0.40
     Davidson diagonalization with overlap
     ethr =  2.22E-07,  avg # of iterations =  2.0

     negative rho (up, down):  1.074E-01 0.000E+00

     total cpu time spent up to now is      475.6 secs

     total energy              =  -14063.83170411 Ry
     estimated scf accuracy    <       0.00332449 Ry

     iteration # 23     ecut=    30.00 Ry     beta= 0.40
     Davidson diagonalization with overlap
     ethr =  2.22E-07,  avg # of iterations =  2.0

     negative rho (up, down):  1.074E-01 0.000E+00

     total cpu time spent up to now is      495.9 secs

     total energy              =  -14063.83185729 Ry
     estimated scf accuracy    <       0.00065706 Ry

     iteration # 24     ecut=    30.00 Ry     beta= 0.40
     Davidson diagonalization with overlap
     ethr =  9.14E-08,  avg # of iterations =  1.0

     negative rho (up, down):  1.075E-01 0.000E+00

     total cpu time spent up to now is      515.7 secs

     total energy              =  -14063.83185696 Ry
     estimated scf accuracy    <       0.00051324 Ry

     iteration # 25     ecut=    30.00 Ry     beta= 0.40
     Davidson diagonalization with overlap
     ethr =  7.14E-08,  avg # of iterations =  1.0

     negative rho (up, down):  1.075E-01 0.000E+00

     total cpu time spent up to now is      535.6 secs

     total energy              =  -14063.83187239 Ry
     estimated scf accuracy    <       0.00081951 Ry

     iteration # 26     ecut=    30.00 Ry     beta= 0.40
     Davidson diagonalization with overlap
     ethr =  7.14E-08,  avg # of iterations =  1.0

     negative rho (up, down):  1.075E-01 0.000E+00

     total cpu time spent up to now is      555.4 secs

     total energy              =  -14063.83189110 Ry
     estimated scf accuracy    <       0.00021980 Ry

     iteration # 27     ecut=    30.00 Ry     beta= 0.40
     Davidson diagonalization with overlap
     ethr =  3.06E-08,  avg # of iterations =  1.0

     negative rho (up, down):  1.075E-01 0.000E+00

     total cpu time spent up to now is      575.3 secs

     total energy              =  -14063.83189795 Ry
     estimated scf accuracy    <       0.00039740 Ry

     iteration # 28     ecut=    30.00 Ry     beta= 0.40
     Davidson diagonalization with overlap
     ethr =  3.06E-08,  avg # of iterations =  1.0

     negative rho (up, down):  1.075E-01 0.000E+00

     total cpu time spent up to now is      595.2 secs

     total energy              =  -14063.83188361 Ry
     estimated scf accuracy    <       0.00035395 Ry

     iteration # 29     ecut=    30.00 Ry     beta= 0.40
     Davidson diagonalization with overlap
     ethr =  3.06E-08,  avg # of iterations =  3.0

     negative rho (up, down):  1.075E-01 0.000E+00

     total cpu time spent up to now is      615.5 secs

     total energy              =  -14063.83182143 Ry
     estimated scf accuracy    <       0.00310910 Ry

     iteration # 30     ecut=    30.00 Ry     beta= 0.40
     Davidson diagonalization with overlap
     ethr =  3.06E-08,  avg # of iterations =  2.0

     negative rho (up, down):  1.075E-01 0.000E+00

     total cpu time spent up to now is      635.5 secs

     total energy              =  -14063.83190876 Ry
     estimated scf accuracy    <       0.00012590 Ry

     iteration # 31     ecut=    30.00 Ry     beta= 0.40
     Davidson diagonalization with overlap
     ethr =  1.75E-08,  avg # of iterations =  1.0

     negative rho (up, down):  1.075E-01 0.000E+00

     total cpu time spent up to now is      655.4 secs

     total energy              =  -14063.83191227 Ry
     estimated scf accuracy    <       0.00003388 Ry

     iteration # 32     ecut=    30.00 Ry     beta= 0.40
     Davidson diagonalization with overlap
     ethr =  4.71E-09,  avg # of iterations =  2.0

     negative rho (up, down):  1.075E-01 0.000E+00

     total cpu time spent up to now is      675.5 secs

     total energy              =  -14063.83191159 Ry
     estimated scf accuracy    <       0.00007714 Ry

     iteration # 33     ecut=    30.00 Ry     beta= 0.40
     Davidson diagonalization with overlap
     ethr =  4.71E-09,  avg # of iterations =  2.0

     negative rho (up, down):  1.075E-01 0.000E+00

     total cpu time spent up to now is      695.7 secs

     total energy              =  -14063.83191372 Ry
     estimated scf accuracy    <       0.00005490 Ry

     iteration # 34     ecut=    30.00 Ry     beta= 0.40
     Davidson diagonalization with overlap
     ethr =  4.71E-09,  avg # of iterations =  1.0

     negative rho (up, down):  1.075E-01 0.000E+00

     total cpu time spent up to now is      715.6 secs

     total energy              =  -14063.83191561 Ry
     estimated scf accuracy    <       0.00000850 Ry

     iteration # 35     ecut=    30.00 Ry     beta= 0.40
     Davidson diagonalization with overlap
     ethr =  1.18E-09,  avg # of iterations =  1.0

     negative rho (up, down):  1.075E-01 0.000E+00

     total cpu time spent up to now is      735.5 secs

     total energy              =  -14063.83191589 Ry
     estimated scf accuracy    <       0.00000868 Ry

     iteration # 36     ecut=    30.00 Ry     beta= 0.40
     Davidson diagonalization with overlap
     ethr =  1.18E-09,  avg # of iterations =  1.0

     negative rho (up, down):  1.075E-01 0.000E+00

     total cpu time spent up to now is      755.3 secs

     total energy              =  -14063.83191620 Ry
     estimated scf accuracy    <       0.00000327 Ry

     iteration # 37     ecut=    30.00 Ry     beta= 0.40
     Davidson diagonalization with overlap
     ethr =  4.55E-10,  avg # of iterations =  1.0

     negative rho (up, down):  1.075E-01 0.000E+00

     total cpu time spent up to now is      775.3 secs

     total energy              =  -14063.83191627 Ry
     estimated scf accuracy    <       0.00000347 Ry

     iteration # 38     ecut=    30.00 Ry     beta= 0.40
     Davidson diagonalization with overlap
     ethr =  4.55E-10,  avg # of iterations =  1.0

     negative rho (up, down):  1.075E-01 0.000E+00

     total cpu time spent up to now is      795.0 secs

     total energy              =  -14063.83191648 Ry
     estimated scf accuracy    <       0.00000073 Ry

     iteration # 39     ecut=    30.00 Ry     beta= 0.40
     Davidson diagonalization with overlap
     ethr =  1.01E-10,  avg # of iterations =  2.0

     negative rho (up, down):  1.075E-01 0.000E+00

     total cpu time spent up to now is      815.2 secs

     total energy              =  -14063.83191638 Ry
     estimated scf accuracy    <       0.00000189 Ry

     iteration # 40     ecut=    30.00 Ry     beta= 0.40
     Davidson diagonalization with overlap
     ethr =  1.01E-10,  avg # of iterations =  3.0

     negative rho (up, down):  1.075E-01 0.000E+00

     total cpu time spent up to now is      835.4 secs

     total energy              =  -14063.83191632 Ry
     estimated scf accuracy    <       0.00000515 Ry

     iteration # 41     ecut=    30.00 Ry     beta= 0.40
     Davidson diagonalization with overlap
     ethr =  1.01E-10,  avg # of iterations =  2.0

     negative rho (up, down):  1.075E-01 0.000E+00

     total cpu time spent up to now is      855.6 secs

     total energy              =  -14063.83191652 Ry
     estimated scf accuracy    <       0.00000030 Ry

     iteration # 42     ecut=    30.00 Ry     beta= 0.40
     Davidson diagonalization with overlap
     ethr =  4.14E-11,  avg # of iterations =  2.0

     negative rho (up, down):  1.075E-01 0.000E+00

     total cpu time spent up to now is      875.8 secs

     total energy              =  -14063.83191649 Ry
     estimated scf accuracy    <       0.00000127 Ry

     iteration # 43     ecut=    30.00 Ry     beta= 0.40
     Davidson diagonalization with overlap
     ethr =  4.14E-11,  avg # of iterations =  2.0

     negative rho (up, down):  1.075E-01 0.000E+00

     total cpu time spent up to now is      895.9 secs

     total energy              =  -14063.83191647 Ry
     estimated scf accuracy    <       0.00000194 Ry

     iteration # 44     ecut=    30.00 Ry     beta= 0.40
     Davidson diagonalization with overlap
     ethr =  4.14E-11,  avg # of iterations =  2.0

     negative rho (up, down):  1.075E-01 0.000E+00

     total cpu time spent up to now is      916.2 secs

     total energy              =  -14063.83191654 Ry
     estimated scf accuracy    <       0.00000023 Ry

     iteration # 45     ecut=    30.00 Ry     beta= 0.40
     Davidson diagonalization with overlap
     ethr =  3.15E-11,  avg # of iterations =  1.0

     negative rho (up, down):  1.075E-01 0.000E+00

     total cpu time spent up to now is      936.0 secs

     total energy              =  -14063.83191655 Ry
     estimated scf accuracy    <       0.00000018 Ry

     iteration # 46     ecut=    30.00 Ry     beta= 0.40
     Davidson diagonalization with overlap
     ethr =  2.53E-11,  avg # of iterations =  1.0

     negative rho (up, down):  1.075E-01 0.000E+00

     total cpu time spent up to now is      955.7 secs

     total energy              =  -14063.83191655 Ry
     estimated scf accuracy    <       0.00000021 Ry

     iteration # 47     ecut=    30.00 Ry     beta= 0.40
     Davidson diagonalization with overlap
     ethr =  2.53E-11,  avg # of iterations =  1.0

     negative rho (up, down):  1.075E-01 0.000E+00

     total cpu time spent up to now is      975.5 secs

     End of self-consistent calculation

          k = 0.0000 0.0000 0.0000 ( 49103 PWs)   bands (ev):

   -61.3441 -61.2841 -61.2613 -61.2598 -61.1936 -61.1742 -61.1733 -61.1594
   -61.1388 -61.1383 -61.1290 -61.1249 -61.1247 -61.1198 -61.1146 -61.1138
   -61.1095 -61.0950 -61.0938 -61.0935 -61.0773 -61.0771 -61.0692 -61.0372
   -61.0306 -61.0301 -60.9512 -60.9499 -60.9497 -60.8911 -60.8836 -60.8821
   -35.6677 -35.6484 -35.6482 -35.5706 -35.5697 -35.5605 -35.5551 -35.5549
   -35.5544 -35.5385 -35.5320 -35.5317 -35.5174 -35.5065 -35.5062 -35.5029
   -35.4802 -35.4751 -35.4744 -35.4619 -35.4618 -35.4556 -35.4553 -35.4517
   -35.4505 -35.3868 -35.3865 -35.3629 -35.3553 -35.3549 -35.3349 -35.3321
   -35.3092 -35.3092 -35.2973 -35.2971 -35.2815 -35.2534 -35.2532 -35.2031
   -35.2025 -35.2016 -35.1964 -35.1818 -35.1816 -35.1803 -35.1651 -35.1651
   -35.1649 -35.1502 -35.1493 -35.1488 -35.1370 -35.1365 -35.1254 -35.1153
   -35.1152 -35.0993 -35.0986 -35.0793 -35.0757 -35.0717 -35.0617 -35.0614
   -35.0536 -35.0533 -35.0383 -35.0174 -35.0170 -35.0092 -35.0054 -35.0049
   -34.9968 -34.9918 -34.9915 -34.9828 -34.9779 -34.9773 -34.9768 -34.9464
   -34.9456 -34.9343 -34.9333 -34.9212 -34.9209 -34.9043 -34.9042 -34.8792
   -34.8783 -34.8770 -34.8571 -34.8555 -34.8408 -34.8405 -34.8261 -34.8254
   -24.6116 -21.7999 -21.7997 -21.7066 -21.7066 -18.3327 -17.5057 -17.3882
   -17.3201 -17.3156 -17.2673 -17.2487 -17.2483 -17.2219 -17.2205 -17.2130
   -17.1851 -17.1843 -17.1597 -17.1587 -17.1197 -17.1150 -17.1012 -17.0696
   -17.0689 -17.0503 -17.0261 -17.0247 -16.9424 -16.9387 -16.9288 -16.9273
   -16.9218 -16.9025 -16.8869 -16.8232 -16.8220 -11.2094 -11.1388 -11.1165
   -11.1160 -11.1063 -11.0628 -11.0624 -10.8425 -10.8051 -10.8043 -10.7777
   -10.7759 -10.7646 -10.7085 -10.6241 -10.6230  -9.4520  -6.4794  -6.4789
    -6.4470  -6.1432  -5.6930  -5.6925  -5.5824  -5.5809  -5.5366  -5.5169
    -5.4983  -5.4977  -5.4765  -5.4478  -5.4465  -5.4251  -5.2375  -5.2365
    -5.1425  -5.1422  -4.9832  -4.9826  -4.9691  -4.8772  -4.8693  -4.8692
    -4.8252  -4.8249  -4.8056  -4.7704  -4.7289  -4.7238  -4.7235  -4.7018
    -4.7014  -4.6826  -4.6485  -4.6483  -4.6427  -4.6140  -4.5918  -4.5912
    -4.5000  -4.4995  -4.4338  -4.4254  -4.4246  -4.4028  -4.4020  -4.3778
    -4.3249  -4.3186  -4.3181  -4.2940  -4.2818  -4.2812  -4.2494  -4.2449
    -4.2443  -4.2422  -4.0841  -4.0835  -3.9913  -3.9911  -3.9649  -3.9487
    -3.9405  -3.8953  -3.8945  -3.8748  -3.8743  -3.8088  -3.6886  -3.6875
    -3.5754  -3.5486  -3.5478  -3.5015  -3.5009  -3.4617  -3.4567  -3.4103
    -3.4098  -3.3922  -3.3920  -3.3687  -3.3092  -3.2780  -3.2766  -3.2677
    -3.1987  -3.1556  -3.1549  -3.1206  -3.1204  -3.1073  -3.0866  -3.0597
    -3.0594  -2.9465  -2.9464  -2.8726  -2.8347  -2.8343  -2.8073  -2.7525
    -2.6122  -2.6028  -2.6018  -2.5354  -2.5341  -2.4148  -2.4145  -2.3970
    -2.3529  -2.3356  -2.3346  -2.2881  -2.2285  -2.2278  -2.1814  -2.1245
    -2.1237  -2.0882  -2.0876  -2.0753  -2.0187  -2.0039  -2.0027  -1.6900
    -1.6735  -1.6726  -1.5795  -1.4815  -1.4805  -1.3457  -1.3451  -1.3146
    -1.2813  -1.2804  -1.2788  -0.9787  -0.7915  -0.7908  -0.7723  -0.6899
    -0.6891  -0.5812  -0.5794  -0.5394  -0.4197  -0.4195  -0.3599  -0.3583
    -0.2809   0.2909   0.2917   0.3783   0.3793   0.3798   0.4960   0.7745
     0.8481   0.8834   0.8847   0.9243   0.9270   0.9695   0.9804   1.0556
     1.0575   1.0985   1.1417   1.1450   1.6866   1.6880   1.6939   1.7455
     1.7460   1.8078   1.8584   1.8591   1.9184   1.9757   1.9766   1.9837
     1.9839   2.0149   2.0152   2.0167   2.0629   2.0632   2.0663   2.0757
     2.1559   2.1573   2.2044   2.2221   2.2229   2.3507   2.3676   2.3703
     2.6518   2.6533   2.7246   2.7261   2.7261   2.7574   2.7741   2.8123
     2.8251   2.8262   2.8625   2.8629   2.8823   2.9083   2.9095   2.9582
     2.9592   3.0277   3.0702   3.0722   3.0797   3.1126   3.1131   3.1312
     3.1748   3.2199   3.2470   3.2481   3.3029   3.3038   3.3933   3.3937
     3.4383   3.4403   3.4521   3.4524   3.4636   3.5117   3.5264   3.5275
     3.5304   3.5599   3.5716   3.6104   3.6113   3.6647   3.6653   3.7274

     the Fermi energy is     1.7465 ev

!    total energy              =  -14063.83191650 Ry
     estimated scf accuracy    <       0.00000008 Ry
     smearing contrib. (-TS)   =      -0.00480712 Ry
     internal energy E=F+TS    =  -14063.82710937 Ry

     The total energy is F=E-TS. E is the sum of the following terms:
     one-electron contribution =  -44671.85000818 Ry
     hartree contribution      =   22433.34700742 Ry
     xc contribution           =    -934.12083120 Ry
     ewald contribution        =   17457.90964830 Ry
     one-center paw contrib.   =   -8349.11292570 Ry

     convergence has been achieved in  47 iterations

     negative rho (up, down):  1.075E-01 0.000E+00

     Forces acting on atoms (cartesian axes, Ry/au):

     atom    1 type  2   force =     0.00297951   -0.00152947    0.00791778
     atom    2 type  2   force =    -0.00319997    0.00496425    0.00124384
     atom    3 type  2   force =    -0.00009062    0.00146730   -0.00576297
     atom    4 type  2   force =    -0.00574236    0.00049469    0.00089425
     atom    5 type  2   force =    -0.00103675   -0.00066523   -0.00566468
     atom    6 type  2   force =     0.00215008   -0.00499969    0.00082091
     atom    7 type  2   force =     0.00111324   -0.00055814   -0.00572014
     atom    8 type  2   force =     0.00597746    0.00028825    0.00143332
     atom    9 type  2   force =    -0.00461914   -0.00259809    0.00696184
     atom   10 type  2   force =     0.00490660   -0.00253320    0.00715180
     atom   11 type  2   force =     0.00007465   -0.00003047    0.00421148
     atom   12 type  2   force =    -0.00279704   -0.00193201    0.00804381
     atom   13 type  2   force =    -0.00005137    0.00488594    0.00743687
     atom   14 type  2   force =     0.00322387    0.00453907    0.00065107
     atom   15 type  2   force =    -0.00014813    0.00342700    0.00778918
     atom   16 type  2   force =    -0.00255887   -0.00525928    0.00136887
     atom   17 type  3   force =    -0.00580226   -0.00761566   -0.01745410
     atom   18 type  3   force =     0.00513897    0.00341832    0.01106425
     atom   19 type  3   force =    -0.00042095   -0.01045852   -0.01963168
     atom   20 type  3   force =     0.00032629    0.00151498   -0.03413482
     atom   21 type  3   force =     0.00603100   -0.00283209    0.02376471
     atom   22 type  3   force =    -0.00034159   -0.00039030    0.00475038
     atom   23 type  3   force =     0.00470197    0.00289675    0.01267003
     atom   24 type  3   force =    -0.00649439   -0.00144938   -0.01840471
     atom   25 type  3   force =     0.00351848    0.01477461    0.01213998
     atom   26 type  3   force =    -0.02767828   -0.01651849   -0.05055160
     atom   27 type  3   force =    -0.00548812    0.00286349    0.01110694
     atom   28 type  3   force =    -0.00231652    0.00074609   -0.03621100
     atom   29 type  3   force =     0.00052476   -0.00604774    0.01116653
     atom   30 type  3   force =     0.00917491    0.00458574   -0.01965262
     atom   31 type  3   force =     0.01351494   -0.00425356    0.01157081
     atom   32 type  3   force =     0.00027830   -0.00252375   -0.03629211
     atom   33 type  3   force =    -0.00873144    0.00543845   -0.01960037
     atom   34 type  3   force =    -0.00543210    0.00215744    0.01260828
     atom   35 type  3   force =    -0.00060790    0.00742886    0.02373025
     atom   36 type  3   force =     0.00928475   -0.00115600   -0.01770064
     atom   37 type  3   force =     0.00180398    0.00641623   -0.01860678
     atom   38 type  3   force =    -0.00524727   -0.00383248    0.02378318
     atom   39 type  3   force =    -0.00299334    0.01387064    0.01176675
     atom   40 type  3   force =     0.00443279   -0.00522752   -0.01826825
     atom   41 type  3   force =     0.01066597   -0.01047977    0.01222910
     atom   42 type  3   force =     0.00143806    0.00108600   -0.03620893
     atom   43 type  3   force =    -0.01027099   -0.00939794    0.01158968
     atom   44 type  3   force =    -0.00053227    0.03226774   -0.05080124
     atom   45 type  3   force =    -0.01432618   -0.00418396    0.01234954
     atom   46 type  3   force =    -0.00355247    0.00865611   -0.01772702
     atom   47 type  3   force =     0.00023248   -0.00611093    0.01238795
     atom   48 type  3   force =     0.02877186   -0.01536638   -0.05079322
     atom   49 type  4   force =    -0.00020383    0.00007637   -0.00025556
     atom   50 type  4   force =     0.00983980   -0.00021191    0.02134774
     atom   51 type  4   force =    -0.00241840   -0.00193096    0.00127807
     atom   52 type  4   force =    -0.00037564    0.00285281    0.00150141
     atom   53 type  4   force =     0.00143301    0.00035343   -0.00290359
     atom   54 type  4   force =     0.00015460   -0.00034705   -0.00094116
     atom   55 type  4   force =    -0.00192709    0.00102848    0.00242458
     atom   56 type  4   force =     0.00463508   -0.00872097    0.02121922
     atom   57 type  4   force =     0.00117120   -0.00048584    0.00042303
     atom   58 type  4   force =     0.00002716   -0.00001356   -0.77301825
     atom   59 type  4   force =     0.00273683   -0.00114533    0.00137801
     atom   60 type  4   force =     0.00017492    0.00024840   -0.00083798
     atom   61 type  4   force =     0.00526160    0.00855125    0.02105221
     atom   62 type  4   force =    -0.00066033   -0.00054290    0.00172893
     atom   63 type  4   force =     0.00124283   -0.00023025    0.00241678
     atom   64 type  4   force =    -0.00044221    0.00080079    0.00218514
     atom   65 type  4   force =     0.00002494   -0.00010447    0.00563131
     atom   66 type  4   force =     0.00002335   -0.00216025    0.00238864
     atom   67 type  4   force =     0.00192053    0.00118342    0.00237587
     atom   68 type  4   force =    -0.00499718   -0.00833648    0.02138468
     atom   69 type  4   force =     0.00020030   -0.00003326   -0.00046493
     atom   70 type  4   force =     0.00096337   -0.00072172    0.00086260
     atom   71 type  4   force =    -0.00024668    0.00124805    0.00061486
     atom   72 type  4   force =    -0.00086830   -0.00076250    0.00055237
     atom   73 type  4   force =    -0.00040955   -0.00145517   -0.00310788
     atom   74 type  4   force =    -0.00985318    0.00030244    0.02131401
     atom   75 type  4   force =     0.00003322   -0.00015707   -0.00031474
     atom   76 type  4   force =    -0.00099413    0.00109131   -0.00283734
     atom   77 type  4   force =     0.00003915    0.00130028    0.00059509
     atom   78 type  4   force =    -0.00485294    0.00858987    0.02113918
     atom   79 type  4   force =    -0.00104436   -0.00057470    0.00058646
     atom   80 type  4   force =    -0.00037512    0.00003098   -0.00099522
     atom   81 type  1   force =     0.00000244    0.00003861    0.83585995

     Total force =     1.151224     Total SCF correction =     0.001477


     Computing stress (Cartesian axis) and pressure


     negative rho (up, down):  1.075E-01 0.000E+00
          total   stress  (Ry/bohr**3)                   (kbar)     P=     -125.73
  -0.00092644   0.00000003   0.00000007         -136.28        0.00        0.01
   0.00000003  -0.00092650   0.00000014            0.00     -136.29        0.02
   0.00000007   0.00000014  -0.00071123            0.01        0.02     -104.63


     Writing all to output data dir /root/qe_scratch/cand034_B_Mo2CO2_Bi.save/ :
     XML data file, charge density, pseudopotentials, collected wavefunctions
 
     init_run     :     22.33s CPU     28.59s WALL (       1 calls)
     electrons    :    782.30s CPU    946.03s WALL (       1 calls)
     forces       :      1.80s CPU      1.86s WALL (       1 calls)
     stress       :      3.13s CPU      3.18s WALL (       1 calls)

     Called by init_run:
     wfcinit      :      0.97s CPU      1.15s WALL (       1 calls)
     potinit      :     19.99s CPU     25.53s WALL (       1 calls)
     hinit0       :      0.76s CPU      0.87s WALL (       1 calls)

     Called by electrons:
     c_bands      :     74.79s CPU     74.89s WALL (      47 calls)
     sum_band     :     11.53s CPU     11.56s WALL (      47 calls)
     v_of_rho     :      4.03s CPU      5.33s WALL (      48 calls)
     newd         :     16.28s CPU     16.40s WALL (      48 calls)
                                       16.40s GPU  (      48 calls)
     PAW_pot      :    679.70s CPU    843.68s WALL (      48 calls)
     mix_rho      :      3.03s CPU      3.14s WALL (      47 calls)

     Called by c_bands:
     init_us_2    :      0.29s CPU      0.29s WALL (      95 calls)
     cegterg      :     73.61s CPU     73.68s WALL (      47 calls)

     Called by *egterg:
     cdiaghg      :      4.96s CPU      4.98s WALL (     152 calls)
                                        4.98s GPU  (     152 calls)
     h_psi        :     29.59s CPU     29.80s WALL (     153 calls)
                                       29.78s GPU  (     153 calls)
     s_psi        :      0.43s CPU      0.43s WALL (     153 calls)
     g_psi        :      0.00s CPU      0.09s WALL (     105 calls)
                                        0.09s GPU  (     105 calls)

     Called by h_psi:
     h_psi:calbec :      0.10s CPU      9.74s WALL (     153 calls)
                                        9.74s GPU  (     153 calls)
     vloc_psi     :     10.48s CPU     10.52s WALL (     153 calls)
                                       10.52s GPU  (     153 calls)
     add_vuspsi   :      0.43s CPU      9.47s WALL (     153 calls)
                                        9.47s GPU  (     153 calls)

     General routines
     calbec       :      0.11s CPU      0.26s WALL (     205 calls)
     fft          :      6.09s CPU      7.86s WALL (     647 calls)
                                        0.13s GPU  (     599 calls)
     ffts         :      5.06s CPU      6.95s WALL (      95 calls)
                                        0.01s GPU  (      47 calls)
     fftw         :      0.09s CPU     10.87s WALL (    6647 calls)
                                       10.85s GPU  (    6647 calls)
     interpolate  :     11.54s CPU     15.13s WALL (      48 calls)
 
     Parallel routines
 
     PWSCF        :  13m30.76s CPU  16m21.20s WALL

 
   This run was terminated on:  13:24:56   6May2026            

=------------------------------------------------------------------------------=
   JOB DONE.
=------------------------------------------------------------------------------=
Warning: ieee_invalid is signaling
Warning: ieee_divide_by_zero is signaling
Warning: ieee_underflow is signaling
Warning: ieee_inexact is signaling
FORTRAN STOP
