--------------------------------------------------------------------------
WARNING: Open MPI tried to bind a process but failed.  This is a
warning only; your job will continue, though performance may
be degraded.

  Local host:        3253031b5b37
  Application name:  /root/qe-7.3.1/bin/pw.x
  Error message:     failed to bind memory
  Location:          ../../../../../orte/mca/rtc/hwloc/rtc_hwloc.c:447

--------------------------------------------------------------------------

     Program PWSCF v.7.3.1 starts on  7May2026 at  2:27:43 

     This program is part of the open-source Quantum ESPRESSO suite
     for quantum simulation of materials; please cite
         "P. Giannozzi et al., J. Phys.:Condens. Matter 21 395502 (2009);
         "P. Giannozzi et al., J. Phys.:Condens. Matter 29 465901 (2017);
         "P. Giannozzi et al., J. Chem. Phys. 152 154105 (2020);
          URL http://www.quantum-espresso.org", 
     in publications or presentations arising from this work. More details at
     http://www.quantum-espresso.org/quote

     Parallel version (MPI & OpenMP), running on       8 processor cores
     Number of MPI processes:                 1
     Threads/MPI process:                     8

     MPI processes distributed on     1 nodes
     91383 MiB available memory on the printing compute node when the environment starts
 
     Reading input from cand203_B_V2CO2_La.in

     Current dimensions of program PWSCF are:
     Max number of different atomic species (ntypx) = 10
     Max number of k-points (npk) =  40000
     Max angular momentum in pseudopotentials (lmaxx) =  4
     file La.UPF: wavefunction(s)  5S 5D 4F renormalized
     file V.UPF: wavefunction(s)  3P 3D renormalized
 
     Subspace diagonalization in iterative solution of the eigenvalue problem:
     a serial algorithm will be used

 
     G-vector sticks info
     --------------------
     sticks:   dense  smooth     PW     G-vecs:    dense   smooth      PW
     Sum        5971    4009   1003               625303   340567   42465
 
     Using Slab Decomposition
 


     bravais-lattice index     =            0
     lattice parameter (alat)  =      21.9701  a.u.
     unit-cell volume          =   15337.4296 (a.u.)^3
     number of atoms/cell      =           81
     number of atomic types    =            4
     number of electrons       =       683.00
     number of Kohn-Sham states=          410
     kinetic-energy cutoff     =      30.0000  Ry
     charge density cutoff     =     180.0000  Ry
     scf convergence threshold =      1.0E-07
     mixing beta               =       0.4000
     number of iterations used =            8  plain     mixing
     Exchange-correlation= PBE
                           (   1   4   3   4   0   0   0)

     GPU acceleration is ACTIVE.  1 visible GPUs per MPI rank


     celldm(1)=  21.970122  celldm(2)=   0.000000  celldm(3)=   0.000000
     celldm(4)=   0.000000  celldm(5)=   0.000000  celldm(6)=   0.000000

     crystal axes: (cart. coord. in units of alat)
               a(1) = (   1.000000   0.000000   0.000000 )  
               a(2) = (  -0.500000   0.866025   0.000000 )  
               a(3) = (   0.000000   0.000000   1.670031 )  

     reciprocal axes: (cart. coord. in units 2 pi/alat)
               b(1) = (  1.000000  0.577350 -0.000000 )  
               b(2) = (  0.000000  1.154700  0.000000 )  
               b(3) = (  0.000000 -0.000000  0.598791 )  


     PseudoPot. # 1 for C  read from file:
     /root/qe_pseudos/C.UPF
     MD5 check sum: 9b35a7431356f8229172919cb1fa74b8
     Pseudo is Norm-conserving, Zval =  4.0
     Generated by new atomic code, or converted to UPF format
     Using radial grid of 1073 points,  1 beta functions with: 
                l(1) =   0

     PseudoPot. # 2 for La read from file:
     /root/qe_pseudos/La.UPF
     MD5 check sum: 6e6ac421535d279511fd22156ed99225
     Pseudo is Projector augmented-wave + core cor, Zval = 11.0
     Generated using &quot;atomic&quot; code by A. Dal Corso  v.6.2.2
     Shape of augmentation charge: PSQ
     Using radial grid of 1253 points,  8 beta functions with: 
                l(1) =   0
                l(2) =   0
                l(3) =   1
                l(4) =   1
                l(5) =   2
                l(6) =   2
                l(7) =   3
                l(8) =   3
     Q(r) pseudized with 0 coefficients 


     PseudoPot. # 3 for O  read from file:
     /root/qe_pseudos/O.UPF
     MD5 check sum: c7f41d994d4e90c1781f5cd713c45011
     Pseudo is Projector augmented-wave + core cor, Zval =  6.0
     Generated using "atomic" code by A. Dal Corso (espresso distribution)
     Shape of augmentation charge: BESSEL
     Using radial grid of 1095 points,  4 beta functions with: 
                l(1) =   0
                l(2) =   0
                l(3) =   1
                l(4) =   1
     Q(r) pseudized with 0 coefficients 


     PseudoPot. # 4 for V  read from file:
     /root/qe_pseudos/V.UPF
     MD5 check sum: 79b3eb63147daf0b665d9f1bcc691206
     Pseudo is Ultrasoft + core correction, Zval = 13.0
     Generated using &quot;atomic&quot; code by A. Dal Corso  v.6.2.2
     Using radial grid of 1181 points,  6 beta functions with: 
                l(1) =   0
                l(2) =   0
                l(3) =   1
                l(4) =   1
                l(5) =   2
                l(6) =   2
     Q(r) pseudized with 0 coefficients 


     atomic species   valence    mass     pseudopotential
     C                 4.00    12.01100     C ( 1.00)
     La               11.00   138.90550     La( 1.00)
     O                 6.00    15.99900     O ( 1.00)
     V                13.00    50.94150     V ( 1.00)

     No symmetry found



   Cartesian axes

     site n.     atom                  positions (alat units)
         1        C      tau(   1) = (   0.1254431   0.6492719   0.8363565  )
         2        C      tau(   2) = (   0.1248678   0.2164443   0.8364099  )
         3        C      tau(   3) = (  -0.1254467   0.6492740   0.8363550  )
         4        C      tau(   4) = (   0.2514489  -0.0008613   0.8343678  )
         5        C      tau(   5) = (  -0.3749183   0.6497058   0.8354607  )
         6        C      tau(   6) = (   0.5000019   0.4330080   0.8355014  )
         7        C      tau(   7) = (   0.5000010   0.0004767   0.8363484  )
         8        C      tau(   8) = (   0.0000026   0.4347317   0.8343791  )
         9        C      tau(   9) = (  -0.2498023   0.4329871   0.8354467  )
        10        C      tau(  10) = (   0.7485538  -0.0008611   0.8343674  )
        11        C      tau(  11) = (   0.6251254   0.2163399   0.8354602  )
        12        C      tau(  12) = (  -0.1248668   0.2164383   0.8364102  )
        13        C      tau(  13) = (   0.3749206   0.6497036   0.8354610  )
        14        C      tau(  14) = (   0.2498022   0.4329863   0.8354592  )
        15        C      tau(  15) = (  -0.0000011   0.0001424   0.8364066  )
        16        C      tau(  16) = (   0.3748755   0.2163421   0.8354630  )
        17        O      tau(  17) = (   0.3742050   0.3603339   1.0251838  )
        18        O      tau(  18) = (   0.3750581   0.5052078   0.6461070  )
        19        O      tau(  19) = (  -0.0000018   0.5770360   1.0251223  )
        20        O      tau(  20) = (   0.1254115   0.5053977   0.6461018  )
        21        O      tau(  21) = (   0.8751406   0.0723018   0.6463269  )
        22        O      tau(  22) = (   0.2500375   0.5773622   1.0268470  )
        23        O      tau(  23) = (   0.0000043   0.7216287   0.6485126  )
        24        O      tau(  24) = (   0.4999985   0.7210174   0.6441659  )
        25        O      tau(  25) = (   0.7526872   0.1429886   1.0289254  )
        26        O      tau(  26) = (   0.2500570   0.7212091   0.6460661  )
        27        O      tau(  27) = (   0.6246584   0.0724866   0.6461001  )
        28        O      tau(  28) = (   0.4999978   0.2886869   0.6460728  )
        29        O      tau(  29) = (  -0.1253325   0.7939937   1.0250890  )
        30        O      tau(  30) = (   0.5000024   0.1443795   1.0268457  )
        31        O      tau(  31) = (   0.1225192   0.3592157   1.0289168  )
        32        O      tau(  32) = (  -0.1254124   0.5054000   0.6461025  )
        33        O      tau(  33) = (   0.6249392   0.5052093   0.6461047  )
        34        O      tau(  34) = (  -0.2500401   0.5773599   1.0268426  )
        35        O      tau(  35) = (   0.2505248   0.2889592   0.6441886  )
        36        O      tau(  36) = (   0.4999998   0.5783115   1.0251987  )
        37        O      tau(  37) = (  -0.3751870   0.7968208   1.0289252  )
        38        O      tau(  38) = (   0.0000055   0.2884683   0.6462941  )
        39        O      tau(  39) = (   0.1248621   0.0723017   0.6463263  )
        40        O      tau(  40) = (  -0.2500540   0.7212115   0.6460602  )
        41        O      tau(  41) = (   0.2473211   0.1429905   1.0289192  )
        42        O      tau(  42) = (   0.3753359   0.0724914   0.6460985  )
        43        O      tau(  43) = (   0.3751911   0.7968169   1.0289248  )
        44        O      tau(  44) = (   0.7494780   0.2889502   0.6441811  )
        45        O      tau(  45) = (   0.6258018   0.3603384   1.0251844  )
        46        O      tau(  46) = (   0.1253295   0.7939936   1.0250910  )
        47        O      tau(  47) = (   0.0000007   0.1444258   1.0314024  )
        48        O      tau(  48) = (  -0.1225191   0.3592168   1.0289118  )
        49        V      tau(  49) = (   0.5000014   0.7229287   0.9348849  )
        50        V      tau(  50) = (   0.7510593   0.1474843   0.7325380  )
        51        V      tau(  51) = (   0.7510989   0.2880695   0.9348844  )
        52        V      tau(  52) = (   0.8650921   0.0664528   0.9315243  )
        53        V      tau(  53) = (   0.6226634   0.5038438   0.9366295  )
        54        V      tau(  54) = (   0.5000057   0.5755040   0.7335201  )
        55        V      tau(  55) = (   0.6233988   0.3617582   0.7334843  )
        56        V      tau(  56) = (   0.3782546   0.7932222   0.7325345  )
        57        V      tau(  57) = (   0.0000051   0.1443337   0.7355045  )
        58        V      tau(  58) = (   0.4999690   0.1410154   0.7335708  )
        59        V      tau(  59) = (   0.1264359   0.7946895   0.7339659  )
        60        V      tau(  60) = (   0.1349078   0.0664568   0.9315283  )
        61        V      tau(  61) = (  -0.1271314   0.3583432   0.7325572  )
        62        V      tau(  62) = (   0.0000166   0.3000963   0.9315222  )
        63        V      tau(  63) = (  -0.2471090   0.5790218   0.7335270  )
        64        V      tau(  64) = (  -0.1276210   0.5063253   0.9390181  )
        65        V      tau(  65) = (  -0.3782719   0.7932044   0.7325385  )
        66        V      tau(  66) = (  -0.2503206   0.7187822   0.9390592  )
        67        V      tau(  67) = (   0.2488960   0.1475063   0.7325387  )
        68        V      tau(  68) = (   0.3773471   0.0738608   0.9390343  )
        69        V      tau(  69) = (   0.2503120   0.7187956   0.9390421  )
        70        V      tau(  70) = (   0.1271416   0.3583505   0.7325523  )
        71        V      tau(  71) = (   0.0000010   0.5757567   0.7339755  )
        72        V      tau(  72) = (   0.1276224   0.5063362   0.9390369  )
        73        V      tau(  73) = (  -0.1264427   0.7946923   0.7339662  )
        74        V      tau(  74) = (   0.0000031   0.7216578   0.9385867  )
        75        V      tau(  75) = (   0.6226681   0.0738553   0.9390222  )
        76        V      tau(  76) = (   0.3766178   0.3617770   0.7334919  )
        77        V      tau(  77) = (   0.5000208   0.2913610   0.9366383  )
        78        V      tau(  78) = (   0.2471133   0.5790095   0.7335432  )
        79        V      tau(  79) = (   0.3773264   0.5038369   0.9366518  )
        80        V      tau(  80) = (   0.2489339   0.2880539   0.9348877  )
        81        La     tau(  81) = (  -0.0000428   0.1442800   1.1938823  )

     number of k points=     1  Methfessel-Paxton smearing, width (Ry)=  0.0100
                       cart. coord. in units 2pi/alat
        k(    1) = (   0.0000000   0.0000000   0.0000000), wk =   2.0000000

     Dense  grid:   625303 G-vectors     FFT dimensions: (  96,  96, 160)

     Smooth grid:   340567 G-vectors     FFT dimensions: (  80,  80, 128)

     Estimated max dynamical RAM per process >       7.29 GB

 %%%%%%%%%%%%%%%%%%%%%%%%%%%%%%%%%%%%%%%%%%%%%%%%%%%%%%%%%%%%%%%%%%%%%%%%%%%%%%
     Error in routine  ylmr2 (15):
     l too large, or wrong number of Ylm required
 %%%%%%%%%%%%%%%%%%%%%%%%%%%%%%%%%%%%%%%%%%%%%%%%%%%%%%%%%%%%%%%%%%%%%%%%%%%%%%

     stopping ...
--------------------------------------------------------------------------
MPI_ABORT was invoked on rank 0 in communicator MPI_COMM_WORLD
with errorcode 15.

NOTE: invoking MPI_ABORT causes Open MPI to kill all MPI processes.
You may or may not see output from other processes, depending on
exactly when Open MPI kills them.
--------------------------------------------------------------------------
