--------------------------------------------------------------------------
WARNING: Open MPI tried to bind a process but failed.  This is a
warning only; your job will continue, though performance may
be degraded.

  Local host:        3253031b5b37
  Application name:  /root/qe-7.3.1/bin/pw.x
  Error message:     failed to bind memory
  Location:          ../../../../../orte/mca/rtc/hwloc/rtc_hwloc.c:447

--------------------------------------------------------------------------

     Program PWSCF v.7.3.1 starts on  6May2026 at 13:24:59 

     This program is part of the open-source Quantum ESPRESSO suite
     for quantum simulation of materials; please cite
         "P. Giannozzi et al., J. Phys.:Condens. Matter 21 395502 (2009);
         "P. Giannozzi et al., J. Phys.:Condens. Matter 29 465901 (2017);
         "P. Giannozzi et al., J. Chem. Phys. 152 154105 (2020);
          URL http://www.quantum-espresso.org", 
     in publications or presentations arising from this work. More details at
     http://www.quantum-espresso.org/quote

     Parallel version (MPI & OpenMP), running on       8 processor cores
     Number of MPI processes:                 1
     Threads/MPI process:                     8

     MPI processes distributed on     1 nodes
     83271 MiB available memory on the printing compute node when the environment starts
 
     Reading input from cand052_B_BiITe_Si.in

     Current dimensions of program PWSCF are:
     Max number of different atomic species (ntypx) = 10
     Max number of k-points (npk) =  40000
     Max angular momentum in pseudopotentials (lmaxx) =  4
     file Bi.UPF: wavefunction(s)  6P 5D renormalized
     file I.UPF: wavefunction(s)  5S renormalized
     file Te.UPF: wavefunction(s)  5S 5P renormalized
 
     Subspace diagonalization in iterative solution of the eigenvalue problem:
     a serial algorithm will be used

 
     G-vector sticks info
     --------------------
     sticks:   dense  smooth     PW     G-vecs:    dense   smooth      PW
     Sum        7789    5197   1285               817957   445377   55529
 
     Using Slab Decomposition
 


     bravais-lattice index     =            0
     lattice parameter (alat)  =      25.0686  a.u.
     unit-cell volume          =   20055.0398 (a.u.)^3
     number of atoms/cell      =           28
     number of atomic types    =            4
     number of electrons       =       256.00
     number of Kohn-Sham states=          154
     kinetic-energy cutoff     =      30.0000  Ry
     charge density cutoff     =     180.0000  Ry
     scf convergence threshold =      1.0E-07
     mixing beta               =       0.4000
     number of iterations used =            8  plain     mixing
     Exchange-correlation= SLA  PW   PBX  PBC
                           (   1   4   3   4   0   0   0)

     GPU acceleration is ACTIVE.  1 visible GPUs per MPI rank


     celldm(1)=  25.068578  celldm(2)=   0.000000  celldm(3)=   0.000000
     celldm(4)=   0.000000  celldm(5)=   0.000000  celldm(6)=   0.000000

     crystal axes: (cart. coord. in units of alat)
               a(1) = (   1.000000   0.000000   0.000000 )  
               a(2) = (  -0.500000   0.866025   0.000000 )  
               a(3) = (   0.000000   0.000000   1.469954 )  

     reciprocal axes: (cart. coord. in units 2 pi/alat)
               b(1) = (  1.000000  0.577350 -0.000000 )  
               b(2) = (  0.000000  1.154701  0.000000 )  
               b(3) = (  0.000000 -0.000000  0.680293 )  


     PseudoPot. # 1 for Bi read from file:
     /root/qe_pseudos/Bi.UPF
     MD5 check sum: 266ded784ae3bc462508ed03f0f37963
     Pseudo is Projector augmented-wave + core cor, Zval = 15.0
     Generated using &quot;atomic&quot; code by A. Dal Corso  v.6.2.2
     Shape of augmentation charge: PSQ
     Using radial grid of 1283 points,  6 beta functions with: 
                l(1) =   0
                l(2) =   0
                l(3) =   1
                l(4) =   1
                l(5) =   2
                l(6) =   2
     Q(r) pseudized with 0 coefficients 


     PseudoPot. # 2 for I  read from file:
     /root/qe_pseudos/I.UPF
     MD5 check sum: cd3d296c3308a581e1559a0c8a554cb5
     Pseudo is Projector augmented-wave + core cor, Zval =  7.0
     Generated using &quot;atomic&quot; code by A. Dal Corso  v.6.3
     Shape of augmentation charge: PSQ
     Using radial grid of 1247 points,  6 beta functions with: 
                l(1) =   0
                l(2) =   0
                l(3) =   1
                l(4) =   1
                l(5) =   2
                l(6) =   2
     Q(r) pseudized with 0 coefficients 


     PseudoPot. # 3 for Si read from file:
     /root/qe_pseudos/Si.UPF
     MD5 check sum: 78279d3766ecb5dbdc0623f3e93c9a23
     Pseudo is Ultrasoft + core correction, Zval =  4.0
     Generated using &quot;atomic&quot; code by A. Dal Corso  v.6.3
     Using radial grid of 1141 points,  4 beta functions with: 
                l(1) =   0
                l(2) =   0
                l(3) =   1
                l(4) =   1
     Q(r) pseudized with 0 coefficients 


     PseudoPot. # 4 for Te read from file:
     /root/qe_pseudos/Te.UPF
     MD5 check sum: 66247bff2bd9dbf220fbb0bf5ab56e9d
     Pseudo is Projector augmented-wave + core cor, Zval =  6.0
     Generated using &quot;atomic&quot; code by A. Dal Corso  v.6.3
     Shape of augmentation charge: PSQ
     Using radial grid of 1245 points,  6 beta functions with: 
                l(1) =   0
                l(2) =   0
                l(3) =   1
                l(4) =   1
                l(5) =   2
                l(6) =   2
     Q(r) pseudized with 0 coefficients 


     atomic species   valence    mass     pseudopotential
     Bi               15.00   208.98040     Bi( 1.00)
     I                 7.00   126.90450     I ( 1.00)
     Si                4.00    28.08500     Si( 1.00)
     Te                6.00   127.60000     Te( 1.00)

     No symmetry found



   Cartesian axes

     site n.     atom                  positions (alat units)
         1        Bi     tau(   1) = (   0.0301815  -0.0196765   0.7510988  )
         2        Bi     tau(   2) = (   0.3325330   0.5772028   0.7448324  )
         3        Bi     tau(   3) = (   0.0021596   0.5812144   0.7440210  )
         4        Bi     tau(   4) = (  -0.1685698   0.3244746   0.7508374  )
         5        Bi     tau(   5) = (  -0.3370043   0.5751921   0.7487488  )
         6        Bi     tau(   6) = (   0.4992027   0.2880699   0.7447156  )
         7        Bi     tau(   7) = (   0.6668503   0.0002376   0.7478685  )
         8        Bi     tau(   8) = (   0.3372933  -0.0002545   0.7438406  )
         9        Bi     tau(   9) = (   0.1663162   0.2883044   0.7460043  )
        10        I      tau(  10) = (   0.1669127   0.4808236   0.5885392  )
        11        I      tau(  11) = (   0.3350669   0.7666369   0.5902556  )
        12        I      tau(  12) = (  -0.3249186   0.7668654   0.5775181  )
        13        I      tau(  13) = (   0.6644195   0.1949823   0.5906292  )
        14        I      tau(  14) = (  -0.1637382   0.4897001   0.5776452  )
        15        I      tau(  15) = (   0.4996325   0.4813621   0.5894917  )
        16        I      tau(  16) = (   0.0082685   0.1957047   0.5566263  )
        17        I      tau(  17) = (   0.3321280   0.1932076   0.5885778  )
        18        I      tau(  18) = (   0.0001867   0.7695309   0.5884576  )
        19        Te     tau(  19) = (   0.8182022   0.0882514   0.8886609  )
        20        Te     tau(  20) = (   0.4983228   0.0960215   0.8727166  )
        21        Te     tau(  21) = (  -0.1673311   0.6735108   0.8714855  )
        22        Te     tau(  22) = (   0.6492244   0.3911959   0.8839852  )
        23        Te     tau(  23) = (   0.0060568   0.3924956   0.8749825  )
        24        Te     tau(  24) = (   0.1764553   0.0983748   0.8750256  )
        25        Te     tau(  25) = (   0.4968580   0.6547308   0.8841048  )
        26        Te     tau(  26) = (   0.1658826   0.6732304   0.8727881  )
        27        Te     tau(  27) = (   0.3297991   0.3828189   0.8700081  )
        28        Si     tau(  28) = (  -0.1037237   0.1324342   0.7114203  )

     number of k points=     1  Methfessel-Paxton smearing, width (Ry)=  0.0100
                       cart. coord. in units 2pi/alat
        k(    1) = (   0.0000000   0.0000000   0.0000000), wk =   2.0000000

     Dense  grid:   817957 G-vectors     FFT dimensions: ( 108, 108, 160)

     Smooth grid:   445377 G-vectors     FFT dimensions: (  90,  90, 135)

     Estimated max dynamical RAM per process >       3.65 GB

     Initial potential from superposition of free atoms

     starting charge     255.9895, renormalised to     256.0000

     negative rho (up, down):  8.928E-02 0.000E+00
     Starting wfcs are  157 randomized atomic wfcs
     Checking if some PAW data can be deallocated... 

     total cpu time spent up to now is       21.9 secs

     Self-consistent Calculation

     iteration #  1     ecut=    30.00 Ry     beta= 0.40
     Davidson diagonalization with overlap
     ethr =  1.00E-02,  avg # of iterations =  2.0

     Threshold (ethr) on eigenvalues was too large:
     Diagonalizing with lowered threshold

     Davidson diagonalization with overlap
     ethr =  4.41E-04,  avg # of iterations =  2.0

     negative rho (up, down):  8.689E-02 0.000E+00

     total cpu time spent up to now is       35.1 secs

     total energy              =  -14837.04241425 Ry
     estimated scf accuracy    <       0.99830439 Ry

     iteration #  2     ecut=    30.00 Ry     beta= 0.40
     Davidson diagonalization with overlap
     ethr =  3.90E-04,  avg # of iterations =  4.0

     negative rho (up, down):  8.670E-02 0.000E+00

     total cpu time spent up to now is       47.9 secs

     total energy              =  -14837.20660274 Ry
     estimated scf accuracy    <       0.62157026 Ry

     iteration #  3     ecut=    30.00 Ry     beta= 0.40
     Davidson diagonalization with overlap
     ethr =  2.43E-04,  avg # of iterations =  2.0

     negative rho (up, down):  8.654E-02 0.000E+00

     total cpu time spent up to now is       60.4 secs

     total energy              =  -14837.29578589 Ry
     estimated scf accuracy    <       0.31808346 Ry

     iteration #  4     ecut=    30.00 Ry     beta= 0.40
     Davidson diagonalization with overlap
     ethr =  1.24E-04,  avg # of iterations =  2.0

     negative rho (up, down):  8.623E-02 0.000E+00

     total cpu time spent up to now is       73.0 secs

     total energy              =  -14837.32845165 Ry
     estimated scf accuracy    <       0.06840712 Ry

     iteration #  5     ecut=    30.00 Ry     beta= 0.40
     Davidson diagonalization with overlap
     ethr =  2.67E-05,  avg # of iterations =  4.0

     negative rho (up, down):  8.595E-02 0.000E+00

     total cpu time spent up to now is       85.5 secs

     total energy              =  -14837.33776124 Ry
     estimated scf accuracy    <       0.03468132 Ry

     iteration #  6     ecut=    30.00 Ry     beta= 0.40
     Davidson diagonalization with overlap
     ethr =  1.35E-05,  avg # of iterations =  2.0

     negative rho (up, down):  8.571E-02 0.000E+00

     total cpu time spent up to now is       98.0 secs

     total energy              =  -14837.34135438 Ry
     estimated scf accuracy    <       0.00372518 Ry

     iteration #  7     ecut=    30.00 Ry     beta= 0.40
     Davidson diagonalization with overlap
     ethr =  1.46E-06,  avg # of iterations = 15.0

     negative rho (up, down):  8.549E-02 0.000E+00

     total cpu time spent up to now is      111.5 secs

     total energy              =  -14837.34201354 Ry
     estimated scf accuracy    <       0.00221821 Ry

     iteration #  8     ecut=    30.00 Ry     beta= 0.40
     Davidson diagonalization with overlap
     ethr =  8.66E-07,  avg # of iterations =  2.0

     negative rho (up, down):  8.543E-02 0.000E+00

     total cpu time spent up to now is      123.9 secs

     total energy              =  -14837.34231022 Ry
     estimated scf accuracy    <       0.00047885 Ry

     iteration #  9     ecut=    30.00 Ry     beta= 0.40
     Davidson diagonalization with overlap
     ethr =  1.87E-07,  avg # of iterations =  2.0

     negative rho (up, down):  8.538E-02 0.000E+00

     total cpu time spent up to now is      136.5 secs

     total energy              =  -14837.34235352 Ry
     estimated scf accuracy    <       0.00008235 Ry

     iteration # 10     ecut=    30.00 Ry     beta= 0.40
     Davidson diagonalization with overlap
     ethr =  3.22E-08,  avg # of iterations =  5.0

     negative rho (up, down):  8.535E-02 0.000E+00

     total cpu time spent up to now is      149.3 secs

     total energy              =  -14837.34236748 Ry
     estimated scf accuracy    <       0.00001967 Ry

     iteration # 11     ecut=    30.00 Ry     beta= 0.40
     Davidson diagonalization with overlap
     ethr =  7.69E-09,  avg # of iterations =  3.0

     negative rho (up, down):  8.534E-02 0.000E+00

     total cpu time spent up to now is      161.8 secs

     total energy              =  -14837.34236928 Ry
     estimated scf accuracy    <       0.00001097 Ry

     iteration # 12     ecut=    30.00 Ry     beta= 0.40
     Davidson diagonalization with overlap
     ethr =  4.28E-09,  avg # of iterations =  2.0

     negative rho (up, down):  8.533E-02 0.000E+00

     total cpu time spent up to now is      174.4 secs

     total energy              =  -14837.34237084 Ry
     estimated scf accuracy    <       0.00000264 Ry

     iteration # 13     ecut=    30.00 Ry     beta= 0.40
     Davidson diagonalization with overlap
     ethr =  1.03E-09,  avg # of iterations =  2.0

     negative rho (up, down):  8.532E-02 0.000E+00

     total cpu time spent up to now is      187.0 secs

     total energy              =  -14837.34237118 Ry
     estimated scf accuracy    <       0.00000048 Ry

     iteration # 14     ecut=    30.00 Ry     beta= 0.40
     Davidson diagonalization with overlap
     ethr =  1.86E-10,  avg # of iterations =  5.0

     negative rho (up, down):  8.532E-02 0.000E+00

     total cpu time spent up to now is      199.6 secs

     total energy              =  -14837.34237125 Ry
     estimated scf accuracy    <       0.00000016 Ry

     iteration # 15     ecut=    30.00 Ry     beta= 0.40
     Davidson diagonalization with overlap
     ethr =  6.44E-11,  avg # of iterations =  3.0

     negative rho (up, down):  8.532E-02 0.000E+00

     total cpu time spent up to now is      212.2 secs

     total energy              =  -14837.34237126 Ry
     estimated scf accuracy    <       0.00000023 Ry

     iteration # 16     ecut=    30.00 Ry     beta= 0.40
     Davidson diagonalization with overlap
     ethr =  6.44E-11,  avg # of iterations =  2.0

     negative rho (up, down):  8.532E-02 0.000E+00

     total cpu time spent up to now is      224.6 secs

     End of self-consistent calculation

          k = 0.0000 0.0000 0.0000 ( 55529 PWs)   bands (ev):

   -24.1863 -24.1830 -24.1759 -24.1716 -24.1643 -24.1581 -24.1551 -24.1468
   -24.1462 -24.1409 -24.1392 -24.1356 -24.1299 -24.1296 -24.1232 -24.1219
   -24.1175 -24.1081 -24.1039 -24.1027 -24.0998 -24.0974 -24.0965 -24.0945
   -24.0922 -24.0900 -24.0875 -24.0833 -24.0816 -24.0791 -24.0760 -24.0730
   -24.0686 -24.0647 -24.0391 -24.0320 -24.0277 -24.0234 -24.0169 -24.0126
   -24.0070 -23.9899 -23.9818 -23.9717 -23.9646 -14.4500 -13.8736 -13.8638
   -13.8377 -13.7714 -13.7613 -13.6825 -13.3879 -13.3794 -13.1903 -12.9005
   -12.8882 -12.8481 -12.7943 -12.7560 -12.6672 -12.2019 -12.1657 -11.7735
   -11.7273 -11.0345 -10.8552 -10.8440 -10.8051 -10.7909 -10.7524 -10.0719
    -7.9245  -5.5190  -5.3854  -5.3233  -5.3199  -5.2608  -5.2029  -5.1487
    -4.9874  -4.9582  -4.8580  -4.8115  -4.6871  -4.4535  -4.3268  -4.2778
    -4.2342  -4.2112  -4.0620  -4.0293  -4.0076  -4.0063  -3.9281  -3.8901
    -3.7122  -3.7013  -3.3597  -3.2369  -3.1977  -3.1390  -3.1084  -3.0790
    -3.0633  -3.0279  -2.9923  -2.9781  -2.9473  -2.9338  -2.7609  -2.7497
    -2.6820  -2.6594  -2.6465  -2.6283  -2.6156  -2.5984  -2.5961  -2.5532
    -2.5391  -2.5012  -2.4734  -2.4661  -2.4302  -2.2873  -1.2838  -0.8798
    -0.8066  -0.2365  -0.0153   0.0997   0.1276   0.2189   0.2715   0.3336
     0.6664   0.7435   0.7840   0.8794   0.9128   0.9833   1.0253   1.1040
     1.1297   1.1608   1.1743   1.2202   1.2746   1.3135   1.3624   1.3932
     1.5929   1.6262

     the Fermi energy is    -0.8432 ev

!    total energy              =  -14837.34237128 Ry
     estimated scf accuracy    <       0.00000001 Ry
     smearing contrib. (-TS)   =      -0.00448631 Ry
     internal energy E=F+TS    =  -14837.33788498 Ry

     The total energy is F=E-TS. E is the sum of the following terms:
     one-electron contribution =   -5669.03576882 Ry
     hartree contribution      =    2911.81908277 Ry
     xc contribution           =    -587.24914461 Ry
     ewald contribution        =    1445.35582074 Ry
     one-center paw contrib.   =  -12938.22787507 Ry

     convergence has been achieved in  16 iterations

     negative rho (up, down):  8.532E-02 0.000E+00

     Forces acting on atoms (cartesian axes, Ry/au):

     atom    1 type  1   force =    -0.00764742    0.00057177   -0.00320787
     atom    2 type  1   force =    -0.00154517   -0.00127194    0.00060957
     atom    3 type  1   force =     0.00191962    0.00329907    0.00057851
     atom    4 type  1   force =    -0.00380173   -0.00741785   -0.00318874
     atom    5 type  1   force =    -0.00229447   -0.00143384    0.00357331
     atom    6 type  1   force =    -0.00142876   -0.00040046    0.00068046
     atom    7 type  1   force =     0.00210721    0.00194213    0.00400357
     atom    8 type  1   force =     0.00405182    0.00028378    0.00020143
     atom    9 type  1   force =     0.00363803    0.00311910   -0.00836917
     atom   10 type  2   force =     0.00052103   -0.00010469    0.00275331
     atom   11 type  2   force =     0.00355302    0.00278343    0.00783709
     atom   12 type  2   force =    -0.00464826    0.00162342    0.00463998
     atom   13 type  2   force =     0.00407796    0.00228485    0.00701355
     atom   14 type  2   force =    -0.00131879   -0.00519605    0.00496953
     atom   15 type  2   force =    -0.00043678   -0.00053243    0.00058162
     atom   16 type  2   force =     0.02466948    0.01428839   -0.01876090
     atom   17 type  2   force =     0.00097415    0.00047109    0.00247149
     atom   18 type  2   force =     0.00076001    0.00094814   -0.00062927
     atom   19 type  4   force =    -0.00928540   -0.00493736    0.02227469
     atom   20 type  4   force =     0.00010422   -0.00292735   -0.00399291
     atom   21 type  4   force =     0.00066784    0.00012242   -0.00092357
     atom   22 type  4   force =     0.00120112   -0.00074381   -0.00600502
     atom   23 type  4   force =     0.00155213   -0.00309200   -0.00184491
     atom   24 type  4   force =    -0.00219035    0.00160356   -0.00185193
     atom   25 type  4   force =     0.00006767    0.00236201   -0.00551722
     atom   26 type  4   force =    -0.00227383    0.00026509   -0.00329554
     atom   27 type  4   force =    -0.00606367   -0.00309896    0.00029642
     atom   28 type  3   force =    -0.00693067   -0.00481150   -0.00489749

     Total force =     0.051475     Total SCF correction =     0.000384


     Computing stress (Cartesian axis) and pressure


     negative rho (up, down):  8.532E-02 0.000E+00
          total   stress  (Ry/bohr**3)                   (kbar)     P=     -193.70
  -0.00130730   0.00000075  -0.00000899         -192.31        0.11       -1.32
   0.00000075  -0.00130872  -0.00000537            0.11     -192.52       -0.79
  -0.00000899  -0.00000537  -0.00133430           -1.32       -0.79     -196.28


     Writing all to output data dir /root/qe_scratch/cand052_B_BiITe_Si.save/ :
     XML data file, charge density, pseudopotentials, collected wavefunctions
 
     init_run     :     15.95s CPU     20.69s WALL (       1 calls)
     electrons    :    167.19s CPU    202.73s WALL (       1 calls)
     forces       :      0.51s CPU      0.55s WALL (       1 calls)
     stress       :      1.40s CPU      1.41s WALL (       1 calls)

     Called by init_run:
     wfcinit      :      0.28s CPU      0.46s WALL (       1 calls)
     potinit      :     14.61s CPU     18.77s WALL (       1 calls)
     hinit0       :      0.68s CPU      0.80s WALL (       1 calls)

     Called by electrons:
     c_bands      :      8.81s CPU      8.85s WALL (      17 calls)
     sum_band     :      2.53s CPU      2.55s WALL (      17 calls)
     v_of_rho     :      1.52s CPU      1.99s WALL (      17 calls)
     newd         :      1.55s CPU      1.63s WALL (      17 calls)
                                        1.63s GPU  (      17 calls)
     PAW_pot      :    158.32s CPU    194.97s WALL (      17 calls)
     mix_rho      :      0.95s CPU      1.04s WALL (      17 calls)

     Called by c_bands:
     init_us_2    :      0.06s CPU      0.06s WALL (      35 calls)
     cegterg      :      8.59s CPU      8.62s WALL (      17 calls)

     Called by *egterg:
     cdiaghg      :      0.75s CPU      0.77s WALL (      75 calls)
                                        0.77s GPU  (      75 calls)
     h_psi        :      3.85s CPU      4.05s WALL (      77 calls)
                                        4.04s GPU  (      77 calls)
     s_psi        :      0.10s CPU      0.10s WALL (      77 calls)
     g_psi        :      0.00s CPU      0.02s WALL (      59 calls)
                                        0.02s GPU  (      59 calls)

     Called by h_psi:
     h_psi:calbec :      0.09s CPU      1.14s WALL (      77 calls)
                                        1.14s GPU  (      77 calls)
     vloc_psi     :      1.92s CPU      1.94s WALL (      77 calls)
                                        1.94s GPU  (      77 calls)
     add_vuspsi   :      0.09s CPU      0.95s WALL (      77 calls)
                                        0.95s GPU  (      77 calls)

     General routines
     calbec       :      0.09s CPU      0.25s WALL (      99 calls)
     fft          :      3.91s CPU      5.12s WALL (     245 calls)
                                        0.06s GPU  (     228 calls)
     ffts         :      3.37s CPU      4.52s WALL (      34 calls)
                                        0.00s GPU  (      17 calls)
     fftw         :      0.03s CPU      2.00s WALL (     998 calls)
                                        1.99s GPU  (     998 calls)
     interpolate  :      7.48s CPU      9.82s WALL (      17 calls)
 
     Parallel routines
 
     PWSCF        :   3m 6.39s CPU   3m46.98s WALL

 
   This run was terminated on:  13:28:46   6May2026            

=------------------------------------------------------------------------------=
   JOB DONE.
=------------------------------------------------------------------------------=
Warning: ieee_invalid is signaling
Warning: ieee_divide_by_zero is signaling
Warning: ieee_inexact is signaling
FORTRAN STOP
