
     Program PWSCF v.6.7MaX starts on  6May2026 at  2:52:40 

     This program is part of the open-source Quantum ESPRESSO suite
     for quantum simulation of materials; please cite
         "P. Giannozzi et al., J. Phys.:Condens. Matter 21 395502 (2009);
         "P. Giannozzi et al., J. Phys.:Condens. Matter 29 465901 (2017);
          URL http://www.quantum-espresso.org", 
     in publications or presentations arising from this work. More details at
     http://www.quantum-espresso.org/quote

     Parallel version (MPI), running on     8 processors

     MPI processes distributed on     1 nodes
     R & G space division:  proc/nbgrp/npool/nimage =       8
     Reading input from /root/qe_inputs/candidates/cand000_A_SnS2_Cu.in

     Current dimensions of program PWSCF are:
     Max number of different atomic species (ntypx) = 10
     Max number of k-points (npk) =  40000
     Max angular momentum in pseudopotentials (lmaxx) =  3
     file S.UPF: wavefunction(s)  3S 3P renormalized
     file Sn.UPF: wavefunction(s)  5S 4D renormalized

     Subspace diagonalization in iterative solution of the eigenvalue problem:
     one sub-group per band group will be used
     scalapack distributed-memory algorithm (size of sub-group:  2*  2 procs)


     Parallelization info
     --------------------
     sticks:   dense  smooth     PW     G-vecs:    dense   smooth      PW
     Min         649     432    107                63727    34668    4323
     Max         650     433    109                63734    34677    4328
     Sum        5197    3463    859               509859   277387   34603



     bravais-lattice index     =            0
     lattice parameter (alat)  =      20.4672  a.u.
     unit-cell volume          =   12496.6279 (a.u.)^3
     number of atoms/cell      =           28
     number of atomic types    =            3
     number of electrons       =       245.00
     number of Kohn-Sham states=          148
     kinetic-energy cutoff     =      30.0000  Ry
     charge density cutoff     =     180.0000  Ry
     scf convergence threshold =      1.0E-07
     mixing beta               =       0.4000
     number of iterations used =            8  plain     mixing
     Exchange-correlation= PBE
                           (   1   4   3   4   0   0   0)

     celldm(1)=  20.467172  celldm(2)=   0.000000  celldm(3)=   0.000000
     celldm(4)=   0.000000  celldm(5)=   0.000000  celldm(6)=   0.000000

     crystal axes: (cart. coord. in units of alat)
               a(1) = (   1.000000   0.000000   0.000000 )  
               a(2) = (  -0.500000   0.866025   0.000000 )  
               a(3) = (   0.000000   0.000000   1.683018 )  

     reciprocal axes: (cart. coord. in units 2 pi/alat)
               b(1) = (  1.000000  0.577350 -0.000000 )  
               b(2) = (  0.000000  1.154701  0.000000 )  
               b(3) = (  0.000000 -0.000000  0.594171 )  


     PseudoPot. # 1 for Cu read from file:
     /root/qe_pseudos/Cu.UPF
     MD5 check sum: fe769b0ab65dca5f3352e2411ad4c6f8
     Pseudo is Projector augmented-wave + core cor, Zval = 11.0
     Generated using "atomic" code by A. Dal Corso (espresso distribution)
     Shape of augmentation charge: BESSEL
     Using radial grid of 1199 points,  6 beta functions with: 
                l(1) =   2
                l(2) =   2
                l(3) =   0
                l(4) =   0
                l(5) =   1
                l(6) =   1
     Q(r) pseudized with 0 coefficients 


     PseudoPot. # 2 for S  read from file:
     /root/qe_pseudos/S.UPF
     MD5 check sum: fb45dfebcf3e72a4e1bd4a866ec2e262
     Pseudo is Projector augmented-wave + core cor, Zval =  6.0
     Generated using &quot;atomic&quot; code by A. Dal Corso  v.6.3
     Shape of augmentation charge: PSQ
     Using radial grid of 1151 points,  6 beta functions with: 
                l(1) =   0
                l(2) =   0
                l(3) =   1
                l(4) =   1
                l(5) =   2
                l(6) =   2
     Q(r) pseudized with 0 coefficients 


     PseudoPot. # 3 for Sn read from file:
     /root/qe_pseudos/Sn.UPF
     MD5 check sum: 72e22d5a9e1ec4fde6a02e1f963898e9
     Pseudo is Ultrasoft + core correction, Zval = 14.0
     Generated using &quot;atomic&quot; code by A. Dal Corso  v.6.3
     Using radial grid of 1243 points,  6 beta functions with: 
                l(1) =   0
                l(2) =   0
                l(3) =   1
                l(4) =   1
                l(5) =   2
                l(6) =   2
     Q(r) pseudized with 0 coefficients 


     atomic species   valence    mass     pseudopotential
        Cu            11.00    63.54600     Cu( 1.00)
        S              6.00    32.06000     S ( 1.00)
        Sn            14.00   118.71000     Sn( 1.00)

     No symmetry found



   Cartesian axes

     site n.     atom                  positions (alat units)
         1           S   tau(   1) = (   0.4900215   0.6588854   0.9985058  )
         2           S   tau(   2) = (   0.6538486   0.3745269   0.6834131  )
         3           S   tau(   3) = (   0.6537706   0.3750821   0.9996569  )
         4           S   tau(   4) = (   0.8128499   0.0820383   0.6726769  )
         5           S   tau(   5) = (   0.8125010   0.0813966   1.0112085  )
         6           S   tau(   6) = (   0.1665749   0.6751931   0.6901494  )
         7           S   tau(   7) = (   0.1666139   0.6751546   0.9924514  )
         8           S   tau(   8) = (   0.3278882   0.3829211   0.6923310  )
         9           S   tau(   9) = (   0.4898790   0.6587225   0.6843490  )
        10           S   tau(  10) = (   0.5023913   0.0962806   0.6905868  )
        11           S   tau(  11) = (   0.3273763   0.3832119   0.9904406  )
        12           S   tau(  12) = (  -0.1619037   0.6807095   0.6918187  )
        13           S   tau(  13) = (  -0.1615245   0.6799063   0.9918001  )
        14           S   tau(  14) = (  -0.0029154   0.3945453   0.6909524  )
        15           S   tau(  15) = (  -0.0023662   0.3945489   0.9914137  )
        16           S   tau(  16) = (   0.1829372   0.1026428   0.6875176  )
        17           S   tau(  17) = (   0.1824803   0.1023541   0.9950766  )
        18           S   tau(  18) = (   0.5021559   0.0966926   0.9930255  )
        19           Sn  tau(  19) = (   0.1686614   0.2852875   0.8412727  )
        20           Sn  tau(  20) = (   0.3448997   0.0032323   0.8413894  )
        21           Sn  tau(  21) = (   0.0058242   0.5909833   0.8413370  )
        22           Sn  tau(  22) = (  -0.3320475   0.5795064   0.8414597  )
        23           Sn  tau(  23) = (   0.6617638  -0.0015783   0.8415873  )
        24           Sn  tau(  24) = (   0.4974670   0.2854003   0.8414638  )
        25           Sn  tau(  25) = (  -0.1785087   0.3669810   0.8417125  )
        26           Sn  tau(  26) = (   0.3307502   0.5746836   0.8413294  )
        27           Sn  tau(  27) = (   0.0621188  -0.0444636   0.8414465  )
        28           Cu  tau(  28) = (  -0.0868409   0.1357718   0.8418753  )

     number of k points=     1  Methfessel-Paxton smearing, width (Ry)=  0.0100
                       cart. coord. in units 2pi/alat
        k(    1) = (   0.0000000   0.0000000   0.0000000), wk =   2.0000000

     Dense  grid:   509859 G-vectors     FFT dimensions: (  90,  90, 150)

     Smooth grid:   277387 G-vectors     FFT dimensions: (  72,  72, 125)

     Estimated max dynamical RAM per process >     319.09 MB

     Estimated total dynamical RAM >       2.49 GB

     Check: negative core charge=   -0.000003

     Initial potential from superposition of free atoms

     starting charge  244.98667, renormalised to  245.00000

     negative rho (up, down):  2.653E-02 0.000E+00
     Starting wfcs are  162 randomized atomic wfcs
     Checking if some PAW data can be deallocated... 

     total cpu time spent up to now is       14.8 secs

     Self-consistent Calculation

     iteration #  1     ecut=    30.00 Ry     beta= 0.40
     Davidson diagonalization with overlap
     ethr =  1.00E-02,  avg # of iterations =  4.0

     negative rho (up, down):  2.527E-02 0.000E+00

     total cpu time spent up to now is       79.2 secs

     total energy              =   -2861.65895470 Ry
     estimated scf accuracy    <       8.53217394 Ry

     iteration #  2     ecut=    30.00 Ry     beta= 0.40
     Davidson diagonalization with overlap
     ethr =  3.48E-03,  avg # of iterations =  4.0

     negative rho (up, down):  2.561E-02 0.000E+00

     total cpu time spent up to now is      144.6 secs

     total energy              =   -2865.85686780 Ry
     estimated scf accuracy    <      22.08225241 Ry

     iteration #  3     ecut=    30.00 Ry     beta= 0.40
     Davidson diagonalization with overlap
     ethr =  3.48E-03,  avg # of iterations =  3.0

     negative rho (up, down):  2.575E-02 0.000E+00

     total cpu time spent up to now is      198.9 secs

     total energy              =   -2867.31885314 Ry
     estimated scf accuracy    <       3.22545908 Ry

     iteration #  4     ecut=    30.00 Ry     beta= 0.40
     Davidson diagonalization with overlap
     ethr =  1.32E-03,  avg # of iterations =  3.0

     negative rho (up, down):  2.584E-02 0.000E+00

     total cpu time spent up to now is      242.1 secs

     total energy              =   -2867.44060148 Ry
     estimated scf accuracy    <       1.30773929 Ry

     iteration #  5     ecut=    30.00 Ry     beta= 0.40
     Davidson diagonalization with overlap
     ethr =  5.34E-04,  avg # of iterations = 10.0

     negative rho (up, down):  2.569E-02 0.000E+00

     total cpu time spent up to now is      338.8 secs

     total energy              =   -2867.24074602 Ry
     estimated scf accuracy    <       0.60763979 Ry

     iteration #  6     ecut=    30.00 Ry     beta= 0.40
     Davidson diagonalization with overlap
     ethr =  2.48E-04,  avg # of iterations =  5.0

     negative rho (up, down):  2.560E-02 0.000E+00

     total cpu time spent up to now is      407.0 secs

     total energy              =   -2867.36000665 Ry
     estimated scf accuracy    <       0.89169204 Ry

     iteration #  7     ecut=    30.00 Ry     beta= 0.40
     Davidson diagonalization with overlap
     ethr =  2.48E-04,  avg # of iterations =  2.0

     negative rho (up, down):  2.557E-02 0.000E+00

     total cpu time spent up to now is      451.8 secs

     total energy              =   -2867.23305027 Ry
     estimated scf accuracy    <       1.41807819 Ry

     iteration #  8     ecut=    30.00 Ry     beta= 0.40
     Davidson diagonalization with overlap
     ethr =  2.48E-04,  avg # of iterations =  2.0

     negative rho (up, down):  2.545E-02 0.000E+00

     total cpu time spent up to now is      494.1 secs

     total energy              =   -2867.38396434 Ry
     estimated scf accuracy    <       0.14444920 Ry

     iteration #  9     ecut=    30.00 Ry     beta= 0.40
     Davidson diagonalization with overlap
     ethr =  5.90E-05,  avg # of iterations = 14.0

     negative rho (up, down):  2.534E-02 0.000E+00

     total cpu time spent up to now is      614.6 secs

     total energy              =   -2867.38742091 Ry
     estimated scf accuracy    <       0.09224669 Ry

     iteration # 10     ecut=    30.00 Ry     beta= 0.40
     Davidson diagonalization with overlap
     ethr =  3.77E-05,  avg # of iterations =  2.0

     negative rho (up, down):  2.527E-02 0.000E+00

     total cpu time spent up to now is      655.2 secs

     total energy              =   -2867.38769007 Ry
     estimated scf accuracy    <       0.07433255 Ry

     iteration # 11     ecut=    30.00 Ry     beta= 0.40
     Davidson diagonalization with overlap
     ethr =  3.03E-05,  avg # of iterations =  1.0

     negative rho (up, down):  2.521E-02 0.000E+00

     total cpu time spent up to now is      689.7 secs

     total energy              =   -2867.38057640 Ry
     estimated scf accuracy    <       0.06109158 Ry

     iteration # 12     ecut=    30.00 Ry     beta= 0.40
     Davidson diagonalization with overlap
     ethr =  2.49E-05,  avg # of iterations =  2.0

     negative rho (up, down):  2.521E-02 0.000E+00

     total cpu time spent up to now is      730.4 secs

     total energy              =   -2867.38314964 Ry
     estimated scf accuracy    <       0.00862676 Ry

     iteration # 13     ecut=    30.00 Ry     beta= 0.40
     Davidson diagonalization with overlap
     ethr =  3.52E-06,  avg # of iterations = 10.0

     negative rho (up, down):  2.519E-02 0.000E+00

     total cpu time spent up to now is      823.6 secs

     total energy              =   -2867.38140473 Ry
     estimated scf accuracy    <       0.01306069 Ry

     iteration # 14     ecut=    30.00 Ry     beta= 0.40
     Davidson diagonalization with overlap
     ethr =  3.52E-06,  avg # of iterations =  2.0

     negative rho (up, down):  2.519E-02 0.000E+00

     total cpu time spent up to now is      863.1 secs

     total energy              =   -2867.38117187 Ry
     estimated scf accuracy    <       0.00341268 Ry

     iteration # 15     ecut=    30.00 Ry     beta= 0.40
     Davidson diagonalization with overlap
     ethr =  1.39E-06,  avg # of iterations =  3.0

     negative rho (up, down):  2.518E-02 0.000E+00

     total cpu time spent up to now is      914.1 secs

     total energy              =   -2867.38115439 Ry
     estimated scf accuracy    <       0.00141756 Ry

     iteration # 16     ecut=    30.00 Ry     beta= 0.40
     Davidson diagonalization with overlap
     ethr =  5.79E-07,  avg # of iterations =  2.0

     negative rho (up, down):  2.516E-02 0.000E+00

     total cpu time spent up to now is      952.8 secs

     total energy              =   -2867.38072450 Ry
     estimated scf accuracy    <       0.00107173 Ry

     iteration # 17     ecut=    30.00 Ry     beta= 0.40
     Davidson diagonalization with overlap
     ethr =  4.37E-07,  avg # of iterations =  5.0

     negative rho (up, down):  2.516E-02 0.000E+00

     total cpu time spent up to now is     1012.6 secs

     total energy              =   -2867.38084429 Ry
     estimated scf accuracy    <       0.00030411 Ry

     iteration # 18     ecut=    30.00 Ry     beta= 0.40
     Davidson diagonalization with overlap
     ethr =  1.24E-07,  avg # of iterations =  2.0

     negative rho (up, down):  2.516E-02 0.000E+00

     total cpu time spent up to now is     1058.2 secs

     total energy              =   -2867.38085964 Ry
     estimated scf accuracy    <       0.00005513 Ry

     iteration # 19     ecut=    30.00 Ry     beta= 0.40
     Davidson diagonalization with overlap
     ethr =  2.25E-08,  avg # of iterations =  2.0

     negative rho (up, down):  2.516E-02 0.000E+00

     total cpu time spent up to now is     1104.3 secs

     total energy              =   -2867.38086274 Ry
     estimated scf accuracy    <       0.00003173 Ry

     iteration # 20     ecut=    30.00 Ry     beta= 0.40
     Davidson diagonalization with overlap
     ethr =  1.29E-08,  avg # of iterations =  2.0

     negative rho (up, down):  2.516E-02 0.000E+00

     total cpu time spent up to now is     1147.4 secs

     total energy              =   -2867.38086401 Ry
     estimated scf accuracy    <       0.00000518 Ry

     iteration # 21     ecut=    30.00 Ry     beta= 0.40
     Davidson diagonalization with overlap
     ethr =  2.11E-09,  avg # of iterations =  2.0

     negative rho (up, down):  2.517E-02 0.000E+00

     total cpu time spent up to now is     1188.0 secs

     total energy              =   -2867.38086450 Ry
     estimated scf accuracy    <       0.00000228 Ry

     iteration # 22     ecut=    30.00 Ry     beta= 0.40
     Davidson diagonalization with overlap
     ethr =  9.31E-10,  avg # of iterations =  2.0

     negative rho (up, down):  2.517E-02 0.000E+00

     total cpu time spent up to now is     1224.3 secs

     total energy              =   -2867.38086458 Ry
     estimated scf accuracy    <       0.00000230 Ry

     iteration # 23     ecut=    30.00 Ry     beta= 0.40
     Davidson diagonalization with overlap
     ethr =  9.31E-10,  avg # of iterations =  2.0

     negative rho (up, down):  2.517E-02 0.000E+00

     total cpu time spent up to now is     1261.3 secs

     total energy              =   -2867.38086477 Ry
     estimated scf accuracy    <       0.00000092 Ry

     iteration # 24     ecut=    30.00 Ry     beta= 0.40
     Davidson diagonalization with overlap
     ethr =  3.77E-10,  avg # of iterations =  2.0

     negative rho (up, down):  2.517E-02 0.000E+00

     total cpu time spent up to now is     1296.1 secs

     total energy              =   -2867.38086486 Ry
     estimated scf accuracy    <       0.00000013 Ry

     iteration # 25     ecut=    30.00 Ry     beta= 0.40
     Davidson diagonalization with overlap
     ethr =  5.44E-11,  avg # of iterations =  5.0

     negative rho (up, down):  2.517E-02 0.000E+00

     total cpu time spent up to now is     1364.9 secs

     End of self-consistent calculation

          k = 0.0000 0.0000 0.0000 ( 34603 PWs)   bands (ev):

   -23.4791 -23.2902 -23.1953 -23.1811 -23.1497 -23.1316 -23.1251 -23.1027
   -23.0888 -23.0801 -23.0778 -23.0687 -23.0580 -23.0562 -23.0483 -23.0436
   -23.0236 -23.0216 -23.0183 -23.0150 -23.0053 -23.0010 -22.9928 -22.9922
   -22.9869 -22.9760 -22.9747 -22.9701 -22.9650 -22.9597 -22.9536 -22.9471
   -22.9419 -22.9331 -22.9281 -22.9094 -22.8925 -22.8868 -22.8645 -22.8491
   -22.6938 -22.6793 -22.6294 -22.6242 -22.5801 -15.6872 -14.7581 -14.7181
   -14.6606 -14.5796 -14.5627 -14.0726 -13.9801 -13.7983 -13.4768 -13.3948
   -13.3120 -13.2590 -13.1920 -13.1298 -12.9188 -12.7753 -12.5000  -9.4252
    -9.1317  -8.9920  -8.8060  -8.5508  -8.2954  -8.2320  -8.1537  -7.9425
    -6.2574  -6.1571  -5.9583  -5.8834  -5.6234  -5.5889  -5.5753  -5.4791
    -5.4369  -5.4028  -5.2975  -5.2921  -5.2378  -5.1708  -4.9838  -4.8981
    -4.8609  -4.8050  -4.6784  -4.4375  -4.4295  -4.3793  -4.2040  -4.1037
    -3.8780  -3.8473  -3.7733  -3.5842  -3.4680  -3.3262  -3.2144  -3.1022
    -2.9639  -2.8445  -2.6458  -2.6036  -2.5221  -2.4791  -2.3905  -2.3423
    -2.2444  -2.2165  -2.2097  -2.1846  -2.1420  -1.9952  -1.8578  -1.7044
    -1.4864  -1.3571  -1.3165  -1.3061  -1.1571  -0.9317  -0.6085  -0.4350
    -0.4077  -0.3544  -0.2318  -0.0798   0.0449   0.9174   1.1150   1.2729
     1.3309   1.7116   2.0921   2.4002   2.7479   2.9253   3.0022   3.3391
     3.3501   3.4046   3.4807   3.7608

     the Fermi energy is    -1.3264 ev

!    total energy              =   -2867.38086481 Ry
     estimated scf accuracy    <       0.00000008 Ry
     smearing contrib. (-TS)   =      -0.00528365 Ry
     internal energy E=F+TS    =   -2867.37558116 Ry

     The total energy is F=E-TS. E is the sum of the following terms:
     one-electron contribution =   -7556.05582125 Ry
     hartree contribution      =    3838.07794034 Ry
     xc contribution           =    -543.28784591 Ry
     ewald contribution        =    2320.73441112 Ry
     one-center paw contrib.   =    -926.84426546 Ry

     convergence has been achieved in  25 iterations

     negative rho (up, down):  2.517E-02 0.000E+00

     Forces acting on atoms (cartesian axes, Ry/au):

     atom    1 type  2   force =     0.02611348   -0.00165076   -0.01358829
     atom    2 type  2   force =     0.00197066    0.00436354    0.00230897
     atom    3 type  2   force =     0.00176377    0.00390299   -0.00180038
     atom    4 type  2   force =     0.01484802    0.00726260    0.00643165
     atom    5 type  2   force =     0.01462536    0.00709075   -0.00692873
     atom    6 type  2   force =    -0.00187182   -0.00911078    0.00504671
     atom    7 type  2   force =    -0.00199437   -0.00878273   -0.00483953
     atom    8 type  2   force =     0.00183890    0.00146213    0.00060436
     atom    9 type  2   force =     0.02622942   -0.00175398    0.01342572
     atom   10 type  2   force =    -0.00601598    0.00499481    0.00323686
     atom   11 type  2   force =     0.00190260    0.00125709   -0.00066360
     atom   12 type  2   force =    -0.00960782    0.00293913   -0.00238285
     atom   13 type  2   force =    -0.00918904    0.00323713    0.00029976
     atom   14 type  2   force =     0.00024538    0.00501444   -0.00854553
     atom   15 type  2   force =     0.00060648    0.00381861    0.00972706
     atom   16 type  2   force =    -0.00737823   -0.00998173   -0.00062607
     atom   17 type  2   force =    -0.00726299   -0.00998514    0.00104824
     atom   18 type  2   force =    -0.00670364    0.00525114   -0.00504663
     atom   19 type  3   force =    -0.01543547    0.01043049   -0.00039588
     atom   20 type  3   force =     0.00609015    0.00664742    0.00160117
     atom   21 type  3   force =     0.01030945   -0.00817734   -0.00004113
     atom   22 type  3   force =    -0.00205394   -0.00056623    0.00040524
     atom   23 type  3   force =     0.05069525    0.02685579    0.00079592
     atom   24 type  3   force =    -0.00073005   -0.00535724    0.00056633
     atom   25 type  3   force =     0.01261997   -0.08456175   -0.00096308
     atom   26 type  3   force =    -0.01587620   -0.00121422   -0.00015641
     atom   27 type  3   force =    -0.05474292    0.05798707   -0.00060249
     atom   28 type  1   force =    -0.03099641   -0.01137324    0.00108260

     Total force =     0.149927     Total SCF correction =     0.001032


     Computing stress (Cartesian axis) and pressure


     negative rho (up, down):  2.517E-02 0.000E+00
          total   stress  (Ry/bohr**3)                   (kbar)     P=     -391.16
  -0.00261717   0.00001604  -0.00000012         -385.00        2.36       -0.02
   0.00001604  -0.00257405  -0.00000028            2.36     -378.66       -0.04
  -0.00000012  -0.00000028  -0.00278591           -0.02       -0.04     -409.82


     Writing output data file /root/qe_scratch/cand000_A_SnS2_Cu.save/

     init_run     :     11.18s CPU     14.45s WALL (       1 calls)
     electrons    :   1045.99s CPU   1350.20s WALL (       1 calls)
     forces       :      7.82s CPU      9.45s WALL (       1 calls)
     stress       :     19.96s CPU     22.40s WALL (       1 calls)

     Called by init_run:
     wfcinit      :      4.57s CPU      6.35s WALL (       1 calls)
     potinit      :      2.14s CPU      2.16s WALL (       1 calls)
     hinit0       :      2.83s CPU      2.98s WALL (       1 calls)

     Called by electrons:
     c_bands      :    934.50s CPU   1200.57s WALL (      25 calls)
     sum_band     :     51.01s CPU     63.03s WALL (      25 calls)
     v_of_rho     :      2.91s CPU      2.65s WALL (      26 calls)
     newd         :     38.31s CPU     65.96s WALL (      26 calls)
     PAW_pot      :     20.13s CPU     20.02s WALL (      26 calls)
     mix_rho      :      0.66s CPU      0.59s WALL (      25 calls)

     Called by c_bands:
     init_us_2    :      0.93s CPU      1.43s WALL (      51 calls)
     cegterg      :    929.53s CPU   1194.71s WALL (      25 calls)

     Called by *egterg:
     cdiaghg      :    702.41s CPU    871.79s WALL (     118 calls)
     h_psi        :     80.51s CPU     95.47s WALL (     119 calls)
     s_psi        :     21.49s CPU     16.82s WALL (     119 calls)
     g_psi        :      0.33s CPU      0.73s WALL (      93 calls)

     Called by h_psi:
     h_psi:calbec :     33.65s CPU     44.06s WALL (     119 calls)
     vloc_psi     :     22.59s CPU     24.90s WALL (     119 calls)
     add_vuspsi   :     24.14s CPU     26.15s WALL (     119 calls)

     General routines
     calbec       :     48.45s CPU     58.70s WALL (     149 calls)
     fft          :      6.83s CPU      7.49s WALL (     361 calls)
     ffts         :      0.12s CPU      0.15s WALL (      51 calls)
     fftw         :     24.78s CPU     27.47s WALL (   19990 calls)
     interpolate  :      0.20s CPU      0.22s WALL (      26 calls)

     Parallel routines
     fft_scatt_xy :      2.90s CPU      3.07s WALL (   20402 calls)
     fft_scatt_yz :     17.09s CPU     18.99s WALL (   20402 calls)

     PWSCF        :  18m 5.34s CPU  23m17.05s WALL


   This run was terminated on:   3:15:57   6May2026            

=------------------------------------------------------------------------------=
   JOB DONE.
=------------------------------------------------------------------------------=
