--------------------------------------------------------------------------
WARNING: Open MPI tried to bind a process but failed.  This is a
warning only; your job will continue, though performance may
be degraded.

  Local host:        3253031b5b37
  Application name:  /root/qe-7.3.1/bin/pw.x
  Error message:     failed to bind memory
  Location:          ../../../../../orte/mca/rtc/hwloc/rtc_hwloc.c:447

--------------------------------------------------------------------------

     Program PWSCF v.7.3.1 starts on  6May2026 at 17: 6:27 

     This program is part of the open-source Quantum ESPRESSO suite
     for quantum simulation of materials; please cite
         "P. Giannozzi et al., J. Phys.:Condens. Matter 21 395502 (2009);
         "P. Giannozzi et al., J. Phys.:Condens. Matter 29 465901 (2017);
         "P. Giannozzi et al., J. Chem. Phys. 152 154105 (2020);
          URL http://www.quantum-espresso.org", 
     in publications or presentations arising from this work. More details at
     http://www.quantum-espresso.org/quote

     Parallel version (MPI & OpenMP), running on       8 processor cores
     Number of MPI processes:                 1
     Threads/MPI process:                     8

     MPI processes distributed on     1 nodes
     80941 MiB available memory on the printing compute node when the environment starts
 
     Reading input from cand178_A_Ti2CO2_Ta.in

     Current dimensions of program PWSCF are:
     Max number of different atomic species (ntypx) = 10
     Max number of k-points (npk) =  40000
     Max angular momentum in pseudopotentials (lmaxx) =  4
     file Ta.UPF: wavefunction(s)  6S 5P 5D renormalized
     file Ti.UPF: wavefunction(s)  3S 3P 3D renormalized
 
     Subspace diagonalization in iterative solution of the eigenvalue problem:
     a serial algorithm will be used

 
     G-vector sticks info
     --------------------
     sticks:   dense  smooth     PW     G-vecs:    dense   smooth      PW
     Sum        6505    4339   1069               681217   370707   46193
 
     Using Slab Decomposition
 


     bravais-lattice index     =            0
     lattice parameter (alat)  =      22.9196  a.u.
     unit-cell volume          =   16700.1634 (a.u.)^3
     number of atoms/cell      =           81
     number of atomic types    =            4
     number of electrons       =       653.00
     number of Kohn-Sham states=          392
     kinetic-energy cutoff     =      30.0000  Ry
     charge density cutoff     =     180.0000  Ry
     scf convergence threshold =      1.0E-07
     mixing beta               =       0.4000
     number of iterations used =            8  plain     mixing
     Exchange-correlation= SLA  PW   PBX  PBC
                           (   1   4   3   4   0   0   0)

     GPU acceleration is ACTIVE.  1 visible GPUs per MPI rank


     celldm(1)=  22.919623  celldm(2)=   0.000000  celldm(3)=   0.000000
     celldm(4)=   0.000000  celldm(5)=   0.000000  celldm(6)=   0.000000

     crystal axes: (cart. coord. in units of alat)
               a(1) = (   1.000000   0.000000   0.000000 )  
               a(2) = (  -0.500000   0.866025   0.000000 )  
               a(3) = (   0.000000   0.000000   1.601650 )  

     reciprocal axes: (cart. coord. in units 2 pi/alat)
               b(1) = (  1.000000  0.577350 -0.000000 )  
               b(2) = (  0.000000  1.154701  0.000000 )  
               b(3) = (  0.000000 -0.000000  0.624356 )  


     PseudoPot. # 1 for C  read from file:
     /root/qe_pseudos/C.UPF
     MD5 check sum: 9b35a7431356f8229172919cb1fa74b8
     Pseudo is Norm-conserving, Zval =  4.0
     Generated by new atomic code, or converted to UPF format
     Using radial grid of 1073 points,  1 beta functions with: 
                l(1) =   0

     PseudoPot. # 2 for O  read from file:
     /root/qe_pseudos/O.UPF
     MD5 check sum: c7f41d994d4e90c1781f5cd713c45011
     Pseudo is Projector augmented-wave + core cor, Zval =  6.0
     Generated using "atomic" code by A. Dal Corso (espresso distribution)
     Shape of augmentation charge: BESSEL
     Using radial grid of 1095 points,  4 beta functions with: 
                l(1) =   0
                l(2) =   0
                l(3) =   1
                l(4) =   1
     Q(r) pseudized with 0 coefficients 


     PseudoPot. # 3 for Ta read from file:
     /root/qe_pseudos/Ta.UPF
     MD5 check sum: 70e26a4a8c1f0430003df9f0e8af0a92
     Pseudo is Projector augmented-wave + core cor, Zval = 13.0
     Generated using &quot;atomic&quot; code by A. Dal Corso  v.6.3
     Shape of augmentation charge: PSQ
     Using radial grid of 1273 points,  6 beta functions with: 
                l(1) =   0
                l(2) =   0
                l(3) =   1
                l(4) =   1
                l(5) =   2
                l(6) =   2
     Q(r) pseudized with 0 coefficients 


     PseudoPot. # 4 for Ti read from file:
     /root/qe_pseudos/Ti.UPF
     MD5 check sum: 01f69b0d8ba4438b2e03ac6ea4af1c0b
     Pseudo is Projector augmented-wave + core cor, Zval = 12.0
     Generated using &quot;atomic&quot; code by A. Dal Corso  v.6.2.2
     Shape of augmentation charge: PSQ
     Using radial grid of 1177 points,  6 beta functions with: 
                l(1) =   0
                l(2) =   0
                l(3) =   1
                l(4) =   1
                l(5) =   2
                l(6) =   2
     Q(r) pseudized with 0 coefficients 


     atomic species   valence    mass     pseudopotential
     C                 4.00    12.01100     C ( 1.00)
     O                 6.00    15.99900     O ( 1.00)
     Ta               13.00   180.94790     Ta( 1.00)
     Ti               12.00    47.86700     Ti( 1.00)

     No symmetry found



   Cartesian axes

     site n.     atom                  positions (alat units)
         1        C      tau(   1) = (   0.1249188   0.6499129   0.8017710  )
         2        C      tau(   2) = (   0.2497002   0.4329782   0.8015083  )
         3        C      tau(   3) = (   0.0013343  -0.0001803   0.7965345  )
         4        C      tau(   4) = (   0.3753360   0.2158560   0.8014691  )
         5        C      tau(   5) = (   0.7494872  -0.0014052   0.7995173  )
         6        C      tau(   6) = (   0.3737900   0.6497823   0.7994387  )
         7        C      tau(   7) = (   0.4999722  -0.0009064   0.8013069  )
         8        C      tau(   8) = (  -0.1244642   0.2177356   0.7994139  )
         9        C      tau(   9) = (  -0.1251317   0.6495064   0.8021058  )
        10        C      tau(  10) = (  -0.0000586   0.4328371   0.8019206  )
        11        C      tau(  11) = (   0.6257128   0.2157144   0.8009463  )
        12        C      tau(  12) = (   0.1241309   0.2166367   0.8012095  )
        13        C      tau(  13) = (  -0.2492027   0.4335097   0.8010627  )
        14        C      tau(  14) = (   0.2499194  -0.0008014   0.8014235  )
        15        C      tau(  15) = (  -0.3742097   0.6492817   0.7997662  )
        16        C      tau(  16) = (   0.5001909   0.4335933   0.8009429  )
        17        O      tau(  17) = (  -0.1234682   0.5060488   0.6181766  )
        18        O      tau(  18) = (  -0.1250693   0.7945856   0.9836062  )
        19        O      tau(  19) = (  -0.0007331   0.7204492   0.6189406  )
        20        O      tau(  20) = (   0.5001006   0.7194885   0.6157836  )
        21        O      tau(  21) = (   0.7463851   0.1462507   0.9860471  )
        22        O      tau(  22) = (   0.4999572   0.1445103   0.9837096  )
        23        O      tau(  23) = (   0.6233818   0.0726057   0.6188243  )
        24        O      tau(  24) = (  -0.1251383   0.3601303   0.9840684  )
        25        O      tau(  25) = (   0.1281523   0.0741461   0.6163491  )
        26        O      tau(  26) = (   0.3754952   0.3607461   0.9838949  )
        27        O      tau(  27) = (   0.4998910   0.2883867   0.6197260  )
        28        O      tau(  28) = (   0.2470808   0.7199492   0.6169612  )
        29        O      tau(  29) = (   0.3753654   0.7919149   0.9919057  )
        30        O      tau(  30) = (   0.2508844   0.5774315   0.9838792  )
        31        O      tau(  31) = (   0.3744967   0.5036101   0.6185398  )
        32        O      tau(  32) = (   0.0033997   0.1428541   0.9902424  )
        33        O      tau(  33) = (   0.5000394   0.5748048   0.9847660  )
        34        O      tau(  34) = (   0.8736566   0.0731561   0.6159089  )
        35        O      tau(  35) = (   0.7493030   0.2895528   0.6181769  )
        36        O      tau(  36) = (  -0.3757893   0.7969653   0.9899836  )
        37        O      tau(  37) = (  -0.2470495   0.7213302   0.6175998  )
        38        O      tau(  38) = (  -0.2506540   0.5774672   0.9839436  )
        39        O      tau(  39) = (   0.2505590   0.1441140   0.9837039  )
        40        O      tau(  40) = (   0.3753011   0.0720146   0.6192684  )
        41        O      tau(  41) = (   0.1236323   0.5051283   0.6185349  )
        42        O      tau(  42) = (   0.6244734   0.3606052   0.9830807  )
        43        O      tau(  43) = (   0.1253904   0.3604643   0.9838101  )
        44        O      tau(  44) = (   0.1256118   0.7945312   0.9841906  )
        45        O      tau(  45) = (   0.2499056   0.2888345   0.6194117  )
        46        O      tau(  46) = (   0.0013245   0.2913879   0.6173643  )
        47        O      tau(  47) = (   0.0001666   0.5774413   0.9835165  )
        48        O      tau(  48) = (   0.6253355   0.5039489   0.6179019  )
        49        Ti     tau(  49) = (   0.4982494   0.7222314   0.8944902  )
        50        Ti     tau(  50) = (   0.8755397   0.0704040   0.8929176  )
        51        Ti     tau(  51) = (   0.3749821   0.7945517   0.6954423  )
        52        Ti     tau(  52) = (   0.7505154   0.2869371   0.9080004  )
        53        Ti     tau(  53) = (   0.7502059   0.1444669   0.6926967  )
        54        Ti     tau(  54) = (   0.4998822   0.5784003   0.6935007  )
        55        Ti     tau(  55) = (   0.6242944   0.5063219   0.9073039  )
        56        Ti     tau(  56) = (   0.6246349   0.3613529   0.6929209  )
        57        Ti     tau(  57) = (  -0.0001596   0.1418761   0.6961375  )
        58        Ti     tau(  58) = (   0.1275730   0.7936226   0.7004576  )
        59        Ti     tau(  59) = (   0.1257438   0.0727206   0.9058561  )
        60        Ti     tau(  60) = (  -0.1247682   0.3587514   0.6979521  )
        61        Ti     tau(  61) = (   0.0003479   0.2863292   0.9084459  )
        62        Ti     tau(  62) = (  -0.2503624   0.5778067   0.6959356  )
        63        Ti     tau(  63) = (  -0.1253183   0.5048690   0.9076752  )
        64        Ti     tau(  64) = (  -0.3770250   0.7940274   0.6957541  )
        65        Ti     tau(  65) = (  -0.2508581   0.7229755   0.9079026  )
        66        Ti     tau(  66) = (   0.2494795   0.1441205   0.6922846  )
        67        Ti     tau(  67) = (   0.3745120   0.0718920   0.9059445  )
        68        Ti     tau(  68) = (   0.2530498   0.7245134   0.9089797  )
        69        Ti     tau(  69) = (   0.1228620   0.3610579   0.6936770  )
        70        Ti     tau(  70) = (  -0.0009251   0.5771396   0.6926827  )
        71        Ti     tau(  71) = (   0.1243359   0.5062889   0.9070138  )
        72        Ti     tau(  72) = (  -0.1251728   0.7929794   0.6932917  )
        73        Ti     tau(  73) = (   0.0001135   0.7217934   0.9063679  )
        74        Ti     tau(  74) = (   0.6268374   0.0736395   0.9104792  )
        75        Ti     tau(  75) = (   0.3744465   0.3616613   0.6943623  )
        76        Ti     tau(  76) = (   0.4997562   0.2888820   0.9100555  )
        77        Ti     tau(  77) = (   0.2507614   0.5794139   0.6962552  )
        78        Ti     tau(  78) = (   0.3755897   0.5060977   0.9092215  )
        79        Ti     tau(  79) = (   0.2488962   0.2897206   0.9068658  )
        80        Ti     tau(  80) = (   0.5009897   0.1436925   0.6945257  )
        81        Ta     tau(  81) = (  -0.0018226  -0.0004779   1.1289756  )

     number of k points=     1  Methfessel-Paxton smearing, width (Ry)=  0.0100
                       cart. coord. in units 2pi/alat
        k(    1) = (   0.0000000   0.0000000   0.0000000), wk =   2.0000000

     Dense  grid:   681217 G-vectors     FFT dimensions: ( 100, 100, 160)

     Smooth grid:   370707 G-vectors     FFT dimensions: (  80,  80, 135)

     Estimated max dynamical RAM per process >       4.16 GB

     Check: negative core charge=   -0.000044

     Initial potential from superposition of free atoms

     starting charge     644.9521, renormalised to     653.0000

     negative rho (up, down):  4.665E-02 0.000E+00
     Starting wfcs are  586 randomized atomic wfcs
     Checking if some PAW data can be deallocated... 

     total cpu time spent up to now is       27.1 secs

     Self-consistent Calculation

     iteration #  1     ecut=    30.00 Ry     beta= 0.40
     Davidson diagonalization with overlap
     ethr =  1.00E-02,  avg # of iterations =  3.0

     negative rho (up, down):  4.287E-02 0.000E+00

     total cpu time spent up to now is       47.3 secs

     total energy              =   -8104.86025745 Ry
     estimated scf accuracy    <      62.52057926 Ry

     iteration #  2     ecut=    30.00 Ry     beta= 0.40
     Davidson diagonalization with overlap
     ethr =  9.57E-03,  avg # of iterations =  5.0

     negative rho (up, down):  6.700E-02 0.000E+00

     total cpu time spent up to now is       68.2 secs

     total energy              =   -8094.36957876 Ry
     estimated scf accuracy    <     169.72285769 Ry

     iteration #  3     ecut=    30.00 Ry     beta= 0.40
     Davidson diagonalization with overlap
     ethr =  9.57E-03,  avg # of iterations =  5.0

     negative rho (up, down):  1.784E-01 0.000E+00

     total cpu time spent up to now is       88.4 secs

     total energy              =   -8096.19212934 Ry
     estimated scf accuracy    <     556.35793940 Ry

     iteration #  4     ecut=    30.00 Ry     beta= 0.40
     Davidson diagonalization with overlap
     ethr =  9.57E-03,  avg # of iterations =  4.0

     negative rho (up, down):  1.030E-01 0.000E+00

     total cpu time spent up to now is      108.3 secs

     total energy              =   -8123.63168638 Ry
     estimated scf accuracy    <      15.89703105 Ry

     iteration #  5     ecut=    30.00 Ry     beta= 0.40
     Davidson diagonalization with overlap
     ethr =  2.43E-03,  avg # of iterations =  6.0
     Minimization algorithm failed to find Fermi energy: reverting to bisection
     Possible cause: smearing is larger than the electronic band-gap.

     negative rho (up, down):  1.023E-01 0.000E+00

     total cpu time spent up to now is      128.3 secs

     total energy              =   -8124.36946780 Ry
     estimated scf accuracy    <       8.10968799 Ry

     iteration #  6     ecut=    30.00 Ry     beta= 0.40
     Davidson diagonalization with overlap
     ethr =  1.24E-03,  avg # of iterations =  2.0
     Minimization algorithm failed to find Fermi energy: reverting to bisection
     Possible cause: smearing is larger than the electronic band-gap.

     negative rho (up, down):  1.344E-01 0.000E+00

     total cpu time spent up to now is      148.1 secs

     total energy              =   -8124.18770824 Ry
     estimated scf accuracy    <       5.91038292 Ry

     iteration #  7     ecut=    30.00 Ry     beta= 0.40
     Davidson diagonalization with overlap
     ethr =  9.05E-04,  avg # of iterations =  4.0

     negative rho (up, down):  1.524E-01 0.000E+00

     total cpu time spent up to now is      168.0 secs

     total energy              =   -8123.33645250 Ry
     estimated scf accuracy    <       4.89776897 Ry

     iteration #  8     ecut=    30.00 Ry     beta= 0.40
     Davidson diagonalization with overlap
     ethr =  7.50E-04,  avg # of iterations =  8.0

     negative rho (up, down):  2.112E-01 0.000E+00

     total cpu time spent up to now is      188.4 secs

     total energy              =   -8124.62354098 Ry
     estimated scf accuracy    <      16.65391699 Ry

     iteration #  9     ecut=    30.00 Ry     beta= 0.40
     Davidson diagonalization with overlap
     ethr =  7.50E-04,  avg # of iterations =  1.0

     negative rho (up, down):  2.557E-01 0.000E+00

     total cpu time spent up to now is      208.0 secs

     total energy              =   -8123.65836023 Ry
     estimated scf accuracy    <      16.99367136 Ry

     iteration # 10     ecut=    30.00 Ry     beta= 0.40
     Davidson diagonalization with overlap
     ethr =  7.50E-04,  avg # of iterations =  2.0

     negative rho (up, down):  3.318E-01 0.000E+00

     total cpu time spent up to now is      227.8 secs

     total energy              =   -8123.93666157 Ry
     estimated scf accuracy    <       0.63613449 Ry

     iteration # 11     ecut=    30.00 Ry     beta= 0.40
     Davidson diagonalization with overlap
     ethr =  9.74E-05,  avg # of iterations = 18.0
     Minimization algorithm failed to find Fermi energy: reverting to bisection
     Possible cause: smearing is larger than the electronic band-gap.

     negative rho (up, down):  3.958E-01 0.000E+00

     total cpu time spent up to now is      248.5 secs

     total energy              =   -8123.88736494 Ry
     estimated scf accuracy    <       1.11084453 Ry

     iteration # 12     ecut=    30.00 Ry     beta= 0.40
     Davidson diagonalization with overlap
     ethr =  9.74E-05,  avg # of iterations =  2.0

     negative rho (up, down):  4.592E-01 0.000E+00

     total cpu time spent up to now is      268.3 secs

     total energy              =   -8124.21071942 Ry
     estimated scf accuracy    <       4.26011719 Ry

     iteration # 13     ecut=    30.00 Ry     beta= 0.40
     Davidson diagonalization with overlap
     ethr =  9.74E-05,  avg # of iterations = 15.0

     negative rho (up, down):  5.527E-01 0.000E+00

     total cpu time spent up to now is      289.1 secs

     total energy              =   -8123.77011274 Ry
     estimated scf accuracy    <       9.44186418 Ry

     iteration # 14     ecut=    30.00 Ry     beta= 0.40
     Davidson diagonalization with overlap
     ethr =  9.74E-05,  avg # of iterations =  3.0

     negative rho (up, down):  6.276E-01 0.000E+00

     total cpu time spent up to now is      309.0 secs

     total energy              =   -8123.97339725 Ry
     estimated scf accuracy    <       0.08868556 Ry

     iteration # 15     ecut=    30.00 Ry     beta= 0.40
     Davidson diagonalization with overlap
     ethr =  1.36E-05,  avg # of iterations = 20.0

     negative rho (up, down):  6.781E-01 0.000E+00

     total cpu time spent up to now is      330.5 secs

     total energy              =   -8123.98462142 Ry
     estimated scf accuracy    <       0.12437251 Ry

     iteration # 16     ecut=    30.00 Ry     beta= 0.40
     Davidson diagonalization with overlap
     ethr =  1.36E-05,  avg # of iterations =  1.0

     negative rho (up, down):  7.240E-01 0.000E+00

     total cpu time spent up to now is      350.0 secs

     total energy              =   -8123.99352463 Ry
     estimated scf accuracy    <       0.02381120 Ry

     iteration # 17     ecut=    30.00 Ry     beta= 0.40
     Davidson diagonalization with overlap
     ethr =  3.65E-06,  avg # of iterations =  2.0

     negative rho (up, down):  7.733E-01 0.000E+00

     total cpu time spent up to now is      369.9 secs

     total energy              =   -8123.99969141 Ry
     estimated scf accuracy    <       0.03915153 Ry

     iteration # 18     ecut=    30.00 Ry     beta= 0.40
     Davidson diagonalization with overlap
     ethr =  3.65E-06,  avg # of iterations =  2.0

     negative rho (up, down):  8.280E-01 0.000E+00

     total cpu time spent up to now is      389.7 secs

     total energy              =   -8124.00298825 Ry
     estimated scf accuracy    <       0.03557009 Ry

     iteration # 19     ecut=    30.00 Ry     beta= 0.40
     Davidson diagonalization with overlap
     ethr =  3.65E-06,  avg # of iterations =  2.0

     negative rho (up, down):  8.781E-01 0.000E+00

     total cpu time spent up to now is      409.7 secs

     total energy              =   -8124.00429178 Ry
     estimated scf accuracy    <       0.00747480 Ry

     iteration # 20     ecut=    30.00 Ry     beta= 0.40
     Davidson diagonalization with overlap
     ethr =  1.14E-06,  avg # of iterations =  2.0

     negative rho (up, down):  9.225E-01 0.000E+00

     total cpu time spent up to now is      429.6 secs

     total energy              =   -8124.00754889 Ry
     estimated scf accuracy    <       0.00478141 Ry

     iteration # 21     ecut=    30.00 Ry     beta= 0.40
     Davidson diagonalization with overlap
     ethr =  7.32E-07,  avg # of iterations =  5.0

     negative rho (up, down):  9.630E-01 0.000E+00

     total cpu time spent up to now is      449.6 secs

     total energy              =   -8124.00924150 Ry
     estimated scf accuracy    <       0.00183713 Ry

     iteration # 22     ecut=    30.00 Ry     beta= 0.40
     Davidson diagonalization with overlap
     ethr =  2.81E-07,  avg # of iterations =  2.0

     negative rho (up, down):  1.001E+00 0.000E+00

     total cpu time spent up to now is      469.4 secs

     total energy              =   -8124.01059965 Ry
     estimated scf accuracy    <       0.00425903 Ry

     iteration # 23     ecut=    30.00 Ry     beta= 0.40
     Davidson diagonalization with overlap
     ethr =  2.81E-07,  avg # of iterations =  2.0

     negative rho (up, down):  1.037E+00 0.000E+00

     total cpu time spent up to now is      489.3 secs

     total energy              =   -8124.01079193 Ry
     estimated scf accuracy    <       0.00092575 Ry

     iteration # 24     ecut=    30.00 Ry     beta= 0.40
     Davidson diagonalization with overlap
     ethr =  1.42E-07,  avg # of iterations =  5.0

     negative rho (up, down):  1.066E+00 0.000E+00

     total cpu time spent up to now is      509.7 secs

     total energy              =   -8124.01207594 Ry
     estimated scf accuracy    <       0.00140121 Ry

     iteration # 25     ecut=    30.00 Ry     beta= 0.40
     Davidson diagonalization with overlap
     ethr =  1.42E-07,  avg # of iterations =  2.0

     negative rho (up, down):  1.093E+00 0.000E+00

     total cpu time spent up to now is      529.6 secs

     total energy              =   -8124.01318211 Ry
     estimated scf accuracy    <       0.00032225 Ry

     iteration # 26     ecut=    30.00 Ry     beta= 0.40
     Davidson diagonalization with overlap
     ethr =  4.93E-08,  avg # of iterations =  2.0

     negative rho (up, down):  1.119E+00 0.000E+00

     total cpu time spent up to now is      549.6 secs

     total energy              =   -8124.01386491 Ry
     estimated scf accuracy    <       0.00025556 Ry

     iteration # 27     ecut=    30.00 Ry     beta= 0.40
     Davidson diagonalization with overlap
     ethr =  3.91E-08,  avg # of iterations =  2.0

     negative rho (up, down):  1.141E+00 0.000E+00

     total cpu time spent up to now is      569.7 secs

     total energy              =   -8124.01468083 Ry
     estimated scf accuracy    <       0.00017139 Ry

     iteration # 28     ecut=    30.00 Ry     beta= 0.40
     Davidson diagonalization with overlap
     ethr =  2.62E-08,  avg # of iterations =  4.0

     negative rho (up, down):  1.160E+00 0.000E+00

     total cpu time spent up to now is      589.9 secs

     total energy              =   -8124.01529878 Ry
     estimated scf accuracy    <       0.00017102 Ry

     iteration # 29     ecut=    30.00 Ry     beta= 0.40
     Davidson diagonalization with overlap
     ethr =  2.62E-08,  avg # of iterations =  2.0

     negative rho (up, down):  1.181E+00 0.000E+00

     total cpu time spent up to now is      609.8 secs

     total energy              =   -8124.01531437 Ry
     estimated scf accuracy    <       0.00036320 Ry

     iteration # 30     ecut=    30.00 Ry     beta= 0.40
     Davidson diagonalization with overlap
     ethr =  2.62E-08,  avg # of iterations =  3.0

     negative rho (up, down):  1.197E+00 0.000E+00

     total cpu time spent up to now is      630.0 secs

     total energy              =   -8124.01563903 Ry
     estimated scf accuracy    <       0.00028330 Ry

     iteration # 31     ecut=    30.00 Ry     beta= 0.40
     Davidson diagonalization with overlap
     ethr =  2.62E-08,  avg # of iterations =  3.0

     negative rho (up, down):  1.209E+00 0.000E+00

     total cpu time spent up to now is      650.0 secs

     total energy              =   -8124.01661302 Ry
     estimated scf accuracy    <       0.00009728 Ry

     iteration # 32     ecut=    30.00 Ry     beta= 0.40
     Davidson diagonalization with overlap
     ethr =  1.49E-08,  avg # of iterations =  3.0

     negative rho (up, down):  1.223E+00 0.000E+00

     total cpu time spent up to now is      670.1 secs

     total energy              =   -8124.01704022 Ry
     estimated scf accuracy    <       0.00013393 Ry

     iteration # 33     ecut=    30.00 Ry     beta= 0.40
     Davidson diagonalization with overlap
     ethr =  1.49E-08,  avg # of iterations =  3.0

     negative rho (up, down):  1.235E+00 0.000E+00

     total cpu time spent up to now is      690.0 secs

     total energy              =   -8124.01727490 Ry
     estimated scf accuracy    <       0.00007450 Ry

     iteration # 34     ecut=    30.00 Ry     beta= 0.40
     Davidson diagonalization with overlap
     ethr =  1.14E-08,  avg # of iterations =  4.0

     negative rho (up, down):  1.246E+00 0.000E+00

     total cpu time spent up to now is      710.4 secs

     total energy              =   -8124.01744099 Ry
     estimated scf accuracy    <       0.00035141 Ry

     iteration # 35     ecut=    30.00 Ry     beta= 0.40
     Davidson diagonalization with overlap
     ethr =  1.14E-08,  avg # of iterations =  3.0

     negative rho (up, down):  1.257E+00 0.000E+00

     total cpu time spent up to now is      730.6 secs

     total energy              =   -8124.01730212 Ry
     estimated scf accuracy    <       0.00039160 Ry

     iteration # 36     ecut=    30.00 Ry     beta= 0.40
     Davidson diagonalization with overlap
     ethr =  1.14E-08,  avg # of iterations =  3.0

     negative rho (up, down):  1.267E+00 0.000E+00

     total cpu time spent up to now is      750.7 secs

     total energy              =   -8124.01667751 Ry
     estimated scf accuracy    <       0.00047865 Ry

     iteration # 37     ecut=    30.00 Ry     beta= 0.40
     Davidson diagonalization with overlap
     ethr =  1.14E-08,  avg # of iterations =  3.0

     negative rho (up, down):  1.278E+00 0.000E+00

     total cpu time spent up to now is      770.9 secs

     total energy              =   -8124.01540084 Ry
     estimated scf accuracy    <       0.00076968 Ry

     iteration # 38     ecut=    30.00 Ry     beta= 0.40
     Davidson diagonalization with overlap
     ethr =  1.14E-08,  avg # of iterations =  3.0

     negative rho (up, down):  1.283E+00 0.000E+00

     total cpu time spent up to now is      791.0 secs

     total energy              =   -8124.01637828 Ry
     estimated scf accuracy    <       0.00109505 Ry

     iteration # 39     ecut=    30.00 Ry     beta= 0.40
     Davidson diagonalization with overlap
     ethr =  1.14E-08,  avg # of iterations =  3.0

     negative rho (up, down):  1.288E+00 0.000E+00

     total cpu time spent up to now is      810.9 secs

     total energy              =   -8124.01714726 Ry
     estimated scf accuracy    <       0.00088608 Ry

     iteration # 40     ecut=    30.00 Ry     beta= 0.40
     Davidson diagonalization with overlap
     ethr =  1.14E-08,  avg # of iterations =  3.0

     negative rho (up, down):  1.293E+00 0.000E+00

     total cpu time spent up to now is      831.0 secs

     total energy              =   -8124.01745198 Ry
     estimated scf accuracy    <       0.00066181 Ry

     iteration # 41     ecut=    30.00 Ry     beta= 0.40
     Davidson diagonalization with overlap
     ethr =  1.14E-08,  avg # of iterations =  3.0

     negative rho (up, down):  1.301E+00 0.000E+00

     total cpu time spent up to now is      851.0 secs

     total energy              =   -8124.01684490 Ry
     estimated scf accuracy    <       0.00069492 Ry

     iteration # 42     ecut=    30.00 Ry     beta= 0.40
     Davidson diagonalization with overlap
     ethr =  1.14E-08,  avg # of iterations =  3.0

     negative rho (up, down):  1.304E+00 0.000E+00

     total cpu time spent up to now is      870.9 secs

     total energy              =   -8124.01769019 Ry
     estimated scf accuracy    <       0.00080175 Ry

     iteration # 43     ecut=    30.00 Ry     beta= 0.40
     Davidson diagonalization with overlap
     ethr =  1.14E-08,  avg # of iterations =  3.0

     negative rho (up, down):  1.321E+00 0.000E+00

     total cpu time spent up to now is      891.0 secs

     total energy              =   -8124.01259206 Ry
     estimated scf accuracy    <       0.00084343 Ry

     iteration # 44     ecut=    30.00 Ry     beta= 0.40
     Davidson diagonalization with overlap
     ethr =  1.14E-08,  avg # of iterations =  5.0

     negative rho (up, down):  1.324E+00 0.000E+00

     total cpu time spent up to now is      911.4 secs

     total energy              =   -8124.01332020 Ry
     estimated scf accuracy    <       0.00199143 Ry

     iteration # 45     ecut=    30.00 Ry     beta= 0.40
     Davidson diagonalization with overlap
     ethr =  1.14E-08,  avg # of iterations =  5.0

     negative rho (up, down):  1.328E+00 0.000E+00

     total cpu time spent up to now is      931.9 secs

     total energy              =   -8124.01320731 Ry
     estimated scf accuracy    <       0.00230891 Ry

     iteration # 46     ecut=    30.00 Ry     beta= 0.40
     Davidson diagonalization with overlap
     ethr =  1.14E-08,  avg # of iterations =  5.0

     negative rho (up, down):  1.322E+00 0.000E+00

     total cpu time spent up to now is      952.4 secs

     total energy              =   -8124.01698751 Ry
     estimated scf accuracy    <       0.00158555 Ry

     iteration # 47     ecut=    30.00 Ry     beta= 0.40
     Davidson diagonalization with overlap
     ethr =  1.14E-08,  avg # of iterations =  5.0

     negative rho (up, down):  1.331E+00 0.000E+00

     total cpu time spent up to now is      972.8 secs

     total energy              =   -8124.01437100 Ry
     estimated scf accuracy    <       0.00202013 Ry

     iteration # 48     ecut=    30.00 Ry     beta= 0.40
     Davidson diagonalization with overlap
     ethr =  1.14E-08,  avg # of iterations =  6.0

     negative rho (up, down):  1.334E+00 0.000E+00

     total cpu time spent up to now is      993.6 secs

     total energy              =   -8124.01401949 Ry
     estimated scf accuracy    <       0.00200168 Ry

     iteration # 49     ecut=    30.00 Ry     beta= 0.40
     Davidson diagonalization with overlap
     ethr =  1.14E-08,  avg # of iterations =  6.0

     negative rho (up, down):  1.338E+00 0.000E+00

     total cpu time spent up to now is     1014.2 secs

     total energy              =   -8124.01395688 Ry
     estimated scf accuracy    <       0.00141270 Ry

     iteration # 50     ecut=    30.00 Ry     beta= 0.40
     Davidson diagonalization with overlap
     ethr =  1.14E-08,  avg # of iterations =  5.0

     negative rho (up, down):  1.342E+00 0.000E+00

     total cpu time spent up to now is     1034.6 secs

     total energy              =   -8124.01329863 Ry
     estimated scf accuracy    <       0.00543041 Ry

     iteration # 51     ecut=    30.00 Ry     beta= 0.40
     Davidson diagonalization with overlap
     ethr =  1.14E-08,  avg # of iterations =  5.0

     negative rho (up, down):  1.335E+00 0.000E+00

     total cpu time spent up to now is     1054.8 secs

     total energy              =   -8124.01716265 Ry
     estimated scf accuracy    <       0.00288365 Ry

     iteration # 52     ecut=    30.00 Ry     beta= 0.40
     Davidson diagonalization with overlap
     ethr =  1.14E-08,  avg # of iterations =  8.0

     negative rho (up, down):  1.328E+00 0.000E+00

     total cpu time spent up to now is     1075.9 secs

     total energy              =   -8124.02042181 Ry
     estimated scf accuracy    <       0.00278460 Ry

     iteration # 53     ecut=    30.00 Ry     beta= 0.40
     Davidson diagonalization with overlap
     ethr =  1.14E-08,  avg # of iterations =  7.0

     negative rho (up, down):  1.331E+00 0.000E+00

     total cpu time spent up to now is     1097.5 secs

     total energy              =   -8124.02074806 Ry
     estimated scf accuracy    <       0.00277886 Ry

     iteration # 54     ecut=    30.00 Ry     beta= 0.40
     Davidson diagonalization with overlap
     ethr =  1.14E-08,  avg # of iterations = 12.0

     negative rho (up, down):  1.333E+00 0.000E+00

     total cpu time spent up to now is     1119.3 secs

     total energy              =   -8124.02105288 Ry
     estimated scf accuracy    <       0.00064276 Ry

     iteration # 55     ecut=    30.00 Ry     beta= 0.40
     Davidson diagonalization with overlap
     ethr =  1.14E-08,  avg # of iterations =  6.0

     negative rho (up, down):  1.335E+00 0.000E+00

     total cpu time spent up to now is     1140.1 secs

     total energy              =   -8124.02122528 Ry
     estimated scf accuracy    <       0.00021804 Ry

     iteration # 56     ecut=    30.00 Ry     beta= 0.40
     Davidson diagonalization with overlap
     ethr =  1.14E-08,  avg # of iterations =  5.0

     negative rho (up, down):  1.337E+00 0.000E+00

     total cpu time spent up to now is     1160.2 secs

     total energy              =   -8124.02134710 Ry
     estimated scf accuracy    <       0.00010023 Ry

     iteration # 57     ecut=    30.00 Ry     beta= 0.40
     Davidson diagonalization with overlap
     ethr =  1.14E-08,  avg # of iterations =  5.0

     negative rho (up, down):  1.339E+00 0.000E+00

     total cpu time spent up to now is     1180.3 secs

     total energy              =   -8124.02141860 Ry
     estimated scf accuracy    <       0.00008781 Ry

     iteration # 58     ecut=    30.00 Ry     beta= 0.40
     Davidson diagonalization with overlap
     ethr =  1.14E-08,  avg # of iterations =  5.0

     negative rho (up, down):  1.341E+00 0.000E+00

     total cpu time spent up to now is     1200.4 secs

     total energy              =   -8124.02142830 Ry
     estimated scf accuracy    <       0.00003670 Ry

     iteration # 59     ecut=    30.00 Ry     beta= 0.40
     Davidson diagonalization with overlap
     ethr =  5.62E-09,  avg # of iterations =  5.0

     negative rho (up, down):  1.343E+00 0.000E+00

     total cpu time spent up to now is     1220.5 secs

     total energy              =   -8124.02146473 Ry
     estimated scf accuracy    <       0.00004236 Ry

     iteration # 60     ecut=    30.00 Ry     beta= 0.40
     Davidson diagonalization with overlap
     ethr =  5.62E-09,  avg # of iterations =  5.0

     negative rho (up, down):  1.345E+00 0.000E+00

     total cpu time spent up to now is     1240.6 secs

     total energy              =   -8124.02149672 Ry
     estimated scf accuracy    <       0.00002330 Ry

     iteration # 61     ecut=    30.00 Ry     beta= 0.40
     Davidson diagonalization with overlap
     ethr =  3.57E-09,  avg # of iterations =  3.0

     negative rho (up, down):  1.346E+00 0.000E+00

     total cpu time spent up to now is     1260.6 secs

     total energy              =   -8124.02159618 Ry
     estimated scf accuracy    <       0.00001330 Ry

     iteration # 62     ecut=    30.00 Ry     beta= 0.40
     Davidson diagonalization with overlap
     ethr =  2.04E-09,  avg # of iterations =  5.0

     negative rho (up, down):  1.348E+00 0.000E+00

     total cpu time spent up to now is     1280.8 secs

     total energy              =   -8124.02167318 Ry
     estimated scf accuracy    <       0.00030170 Ry

     iteration # 63     ecut=    30.00 Ry     beta= 0.40
     Davidson diagonalization with overlap
     ethr =  2.04E-09,  avg # of iterations =  3.0

     negative rho (up, down):  1.349E+00 0.000E+00

     total cpu time spent up to now is     1300.8 secs

     total energy              =   -8124.02169272 Ry
     estimated scf accuracy    <       0.00001239 Ry

     iteration # 64     ecut=    30.00 Ry     beta= 0.40
     Davidson diagonalization with overlap
     ethr =  1.90E-09,  avg # of iterations =  3.0

     negative rho (up, down):  1.350E+00 0.000E+00

     total cpu time spent up to now is     1320.8 secs

     total energy              =   -8124.02172401 Ry
     estimated scf accuracy    <       0.00000566 Ry

     iteration # 65     ecut=    30.00 Ry     beta= 0.40
     Davidson diagonalization with overlap
     ethr =  8.66E-10,  avg # of iterations =  3.0

     negative rho (up, down):  1.352E+00 0.000E+00

     total cpu time spent up to now is     1341.0 secs

     total energy              =   -8124.02175154 Ry
     estimated scf accuracy    <       0.00000244 Ry

     iteration # 66     ecut=    30.00 Ry     beta= 0.40
     Davidson diagonalization with overlap
     ethr =  3.74E-10,  avg # of iterations =  3.0

     negative rho (up, down):  1.353E+00 0.000E+00

     total cpu time spent up to now is     1361.2 secs

     total energy              =   -8124.02180464 Ry
     estimated scf accuracy    <       0.00000237 Ry

     iteration # 67     ecut=    30.00 Ry     beta= 0.40
     Davidson diagonalization with overlap
     ethr =  3.64E-10,  avg # of iterations =  3.0

     negative rho (up, down):  1.354E+00 0.000E+00

     total cpu time spent up to now is     1381.4 secs

     total energy              =   -8124.02182227 Ry
     estimated scf accuracy    <       0.00000702 Ry

     iteration # 68     ecut=    30.00 Ry     beta= 0.40
     Davidson diagonalization with overlap
     ethr =  3.64E-10,  avg # of iterations =  4.0

     negative rho (up, down):  1.354E+00 0.000E+00

     total cpu time spent up to now is     1401.8 secs

     total energy              =   -8124.02181691 Ry
     estimated scf accuracy    <       0.00002256 Ry

     iteration # 69     ecut=    30.00 Ry     beta= 0.40
     Davidson diagonalization with overlap
     ethr =  3.64E-10,  avg # of iterations =  3.0

     negative rho (up, down):  1.355E+00 0.000E+00

     total cpu time spent up to now is     1422.1 secs

     total energy              =   -8124.02182703 Ry
     estimated scf accuracy    <       0.00003079 Ry

     iteration # 70     ecut=    30.00 Ry     beta= 0.40
     Davidson diagonalization with overlap
     ethr =  3.64E-10,  avg # of iterations =  3.0

     negative rho (up, down):  1.356E+00 0.000E+00

     total cpu time spent up to now is     1442.4 secs

     total energy              =   -8124.02176315 Ry
     estimated scf accuracy    <       0.00002708 Ry

     iteration # 71     ecut=    30.00 Ry     beta= 0.40
     Davidson diagonalization with overlap
     ethr =  3.64E-10,  avg # of iterations =  3.0

     negative rho (up, down):  1.357E+00 0.000E+00

     total cpu time spent up to now is     1462.9 secs

     total energy              =   -8124.02166555 Ry
     estimated scf accuracy    <       0.00004461 Ry

     iteration # 72     ecut=    30.00 Ry     beta= 0.40
     Davidson diagonalization with overlap
     ethr =  3.64E-10,  avg # of iterations =  3.0

     negative rho (up, down):  1.358E+00 0.000E+00

     total cpu time spent up to now is     1483.0 secs

     total energy              =   -8124.02164549 Ry
     estimated scf accuracy    <       0.00006498 Ry

     iteration # 73     ecut=    30.00 Ry     beta= 0.40
     Davidson diagonalization with overlap
     ethr =  3.64E-10,  avg # of iterations =  3.0

     negative rho (up, down):  1.358E+00 0.000E+00

     total cpu time spent up to now is     1503.2 secs

     total energy              =   -8124.02152819 Ry
     estimated scf accuracy    <       0.00007017 Ry

     iteration # 74     ecut=    30.00 Ry     beta= 0.40
     Davidson diagonalization with overlap
     ethr =  3.64E-10,  avg # of iterations =  3.0

     negative rho (up, down):  1.359E+00 0.000E+00

     total cpu time spent up to now is     1523.4 secs

     total energy              =   -8124.02139435 Ry
     estimated scf accuracy    <       0.00009062 Ry

     iteration # 75     ecut=    30.00 Ry     beta= 0.40
     Davidson diagonalization with overlap
     ethr =  3.64E-10,  avg # of iterations =  3.0

     negative rho (up, down):  1.360E+00 0.000E+00

     total cpu time spent up to now is     1543.5 secs

     total energy              =   -8124.02130813 Ry
     estimated scf accuracy    <       0.00011245 Ry

     iteration # 76     ecut=    30.00 Ry     beta= 0.40
     Davidson diagonalization with overlap
     ethr =  3.64E-10,  avg # of iterations =  3.0

     negative rho (up, down):  1.360E+00 0.000E+00

     total cpu time spent up to now is     1563.5 secs

     total energy              =   -8124.02140218 Ry
     estimated scf accuracy    <       0.00012652 Ry

     iteration # 77     ecut=    30.00 Ry     beta= 0.40
     Davidson diagonalization with overlap
     ethr =  3.64E-10,  avg # of iterations =  3.0

     negative rho (up, down):  1.360E+00 0.000E+00

     total cpu time spent up to now is     1583.8 secs

     total energy              =   -8124.02140018 Ry
     estimated scf accuracy    <       0.00012271 Ry

     iteration # 78     ecut=    30.00 Ry     beta= 0.40
     Davidson diagonalization with overlap
     ethr =  3.64E-10,  avg # of iterations =  3.0

     negative rho (up, down):  1.361E+00 0.000E+00

     total cpu time spent up to now is     1603.9 secs

     total energy              =   -8124.02130846 Ry
     estimated scf accuracy    <       0.00011472 Ry

     iteration # 79     ecut=    30.00 Ry     beta= 0.40
     Davidson diagonalization with overlap
     ethr =  3.64E-10,  avg # of iterations =  3.0

     negative rho (up, down):  1.361E+00 0.000E+00

     total cpu time spent up to now is     1623.8 secs

     total energy              =   -8124.02122984 Ry
     estimated scf accuracy    <       0.00012719 Ry

     iteration # 80     ecut=    30.00 Ry     beta= 0.40
     Davidson diagonalization with overlap
     ethr =  3.64E-10,  avg # of iterations =  3.0

     negative rho (up, down):  1.361E+00 0.000E+00

     total cpu time spent up to now is     1643.9 secs

     total energy              =   -8124.02123698 Ry
     estimated scf accuracy    <       0.00014229 Ry

     iteration # 81     ecut=    30.00 Ry     beta= 0.40
     Davidson diagonalization with overlap
     ethr =  3.64E-10,  avg # of iterations =  5.0

     negative rho (up, down):  1.362E+00 0.000E+00

     total cpu time spent up to now is     1664.2 secs

     total energy              =   -8124.02108840 Ry
     estimated scf accuracy    <       0.00014982 Ry

     iteration # 82     ecut=    30.00 Ry     beta= 0.40
     Davidson diagonalization with overlap
     ethr =  3.64E-10,  avg # of iterations =  5.0

     negative rho (up, down):  1.362E+00 0.000E+00

     total cpu time spent up to now is     1684.4 secs

     total energy              =   -8124.02115410 Ry
     estimated scf accuracy    <       0.00016075 Ry

     iteration # 83     ecut=    30.00 Ry     beta= 0.40
     Davidson diagonalization with overlap
     ethr =  3.64E-10,  avg # of iterations =  5.0

     negative rho (up, down):  1.363E+00 0.000E+00

     total cpu time spent up to now is     1705.0 secs

     total energy              =   -8124.02063643 Ry
     estimated scf accuracy    <       0.00024822 Ry

     iteration # 84     ecut=    30.00 Ry     beta= 0.40
     Davidson diagonalization with overlap
     ethr =  3.64E-10,  avg # of iterations =  7.0

     negative rho (up, down):  1.363E+00 0.000E+00

     total cpu time spent up to now is     1726.3 secs

     total energy              =   -8124.02084053 Ry
     estimated scf accuracy    <       0.00061869 Ry

     iteration # 85     ecut=    30.00 Ry     beta= 0.40
     Davidson diagonalization with overlap
     ethr =  3.64E-10,  avg # of iterations =  7.0

     negative rho (up, down):  1.365E+00 0.000E+00

     total cpu time spent up to now is     1747.8 secs

     total energy              =   -8124.01990011 Ry
     estimated scf accuracy    <       0.00023678 Ry

     iteration # 86     ecut=    30.00 Ry     beta= 0.40
     Davidson diagonalization with overlap
     ethr =  3.64E-10,  avg # of iterations =  6.0

     negative rho (up, down):  1.365E+00 0.000E+00

     total cpu time spent up to now is     1768.9 secs

     total energy              =   -8124.02000255 Ry
     estimated scf accuracy    <       0.00035122 Ry

     iteration # 87     ecut=    30.00 Ry     beta= 0.40
     Davidson diagonalization with overlap
     ethr =  3.64E-10,  avg # of iterations =  8.0

     negative rho (up, down):  1.364E+00 0.000E+00

     total cpu time spent up to now is     1789.9 secs

     total energy              =   -8124.02029760 Ry
     estimated scf accuracy    <       0.00098115 Ry

     iteration # 88     ecut=    30.00 Ry     beta= 0.40
     Davidson diagonalization with overlap
     ethr =  3.64E-10,  avg # of iterations =  7.0

     negative rho (up, down):  1.360E+00 0.000E+00

     total cpu time spent up to now is     1811.0 secs

     total energy              =   -8124.02183558 Ry
     estimated scf accuracy    <       0.00034485 Ry

     iteration # 89     ecut=    30.00 Ry     beta= 0.40
     Davidson diagonalization with overlap
     ethr =  3.64E-10,  avg # of iterations =  7.0

     negative rho (up, down):  1.360E+00 0.000E+00

     total cpu time spent up to now is     1832.7 secs

     total energy              =   -8124.02189969 Ry
     estimated scf accuracy    <       0.00022697 Ry

     iteration # 90     ecut=    30.00 Ry     beta= 0.40
     Davidson diagonalization with overlap
     ethr =  3.64E-10,  avg # of iterations =  7.0

     negative rho (up, down):  1.360E+00 0.000E+00

     total cpu time spent up to now is     1854.1 secs

     total energy              =   -8124.02206948 Ry
     estimated scf accuracy    <       0.00004388 Ry

     iteration # 91     ecut=    30.00 Ry     beta= 0.40
     Davidson diagonalization with overlap
     ethr =  3.64E-10,  avg # of iterations =  6.0

     negative rho (up, down):  1.361E+00 0.000E+00

     total cpu time spent up to now is     1875.3 secs

     total energy              =   -8124.02209090 Ry
     estimated scf accuracy    <       0.00014875 Ry

     iteration # 92     ecut=    30.00 Ry     beta= 0.40
     Davidson diagonalization with overlap
     ethr =  3.64E-10,  avg # of iterations =  6.0

     negative rho (up, down):  1.361E+00 0.000E+00

     total cpu time spent up to now is     1896.3 secs

     total energy              =   -8124.02211309 Ry
     estimated scf accuracy    <       0.00000486 Ry

     iteration # 93     ecut=    30.00 Ry     beta= 0.40
     Davidson diagonalization with overlap
     ethr =  3.64E-10,  avg # of iterations =  6.0

     negative rho (up, down):  1.361E+00 0.000E+00

     total cpu time spent up to now is     1916.9 secs

     total energy              =   -8124.02211813 Ry
     estimated scf accuracy    <       0.00002926 Ry

     iteration # 94     ecut=    30.00 Ry     beta= 0.40
     Davidson diagonalization with overlap
     ethr =  3.64E-10,  avg # of iterations =  6.0

     negative rho (up, down):  1.361E+00 0.000E+00

     total cpu time spent up to now is     1937.4 secs

     total energy              =   -8124.02212695 Ry
     estimated scf accuracy    <       0.00000629 Ry

     iteration # 95     ecut=    30.00 Ry     beta= 0.40
     Davidson diagonalization with overlap
     ethr =  3.64E-10,  avg # of iterations =  3.0

     negative rho (up, down):  1.362E+00 0.000E+00

     total cpu time spent up to now is     1957.3 secs

     total energy              =   -8124.02213208 Ry
     estimated scf accuracy    <       0.00000315 Ry

     iteration # 96     ecut=    30.00 Ry     beta= 0.40
     Davidson diagonalization with overlap
     ethr =  3.64E-10,  avg # of iterations =  3.0

     negative rho (up, down):  1.362E+00 0.000E+00

     total cpu time spent up to now is     1977.4 secs

     total energy              =   -8124.02213821 Ry
     estimated scf accuracy    <       0.00000251 Ry

     iteration # 97     ecut=    30.00 Ry     beta= 0.40
     Davidson diagonalization with overlap
     ethr =  3.64E-10,  avg # of iterations =  3.0

     negative rho (up, down):  1.362E+00 0.000E+00

     total cpu time spent up to now is     1997.3 secs

     total energy              =   -8124.02213328 Ry
     estimated scf accuracy    <       0.00000296 Ry

     iteration # 98     ecut=    30.00 Ry     beta= 0.40
     Davidson diagonalization with overlap
     ethr =  3.64E-10,  avg # of iterations =  3.0

     negative rho (up, down):  1.362E+00 0.000E+00

     total cpu time spent up to now is     2017.2 secs

     total energy              =   -8124.02212673 Ry
     estimated scf accuracy    <       0.00000982 Ry

     iteration # 99     ecut=    30.00 Ry     beta= 0.40
     Davidson diagonalization with overlap
     ethr =  3.64E-10,  avg # of iterations =  3.0

     negative rho (up, down):  1.362E+00 0.000E+00

     total cpu time spent up to now is     2037.1 secs

     total energy              =   -8124.02215830 Ry
     estimated scf accuracy    <       0.00001218 Ry

     iteration #100     ecut=    30.00 Ry     beta= 0.40
     Davidson diagonalization with overlap
     ethr =  3.64E-10,  avg # of iterations =  3.0

     negative rho (up, down):  1.362E+00 0.000E+00

     total cpu time spent up to now is     2057.1 secs

     total energy              =   -8124.02216312 Ry
     estimated scf accuracy    <       0.00000522 Ry

     iteration #101     ecut=    30.00 Ry     beta= 0.40
     Davidson diagonalization with overlap
     ethr =  3.64E-10,  avg # of iterations =  3.0

     negative rho (up, down):  1.362E+00 0.000E+00

     total cpu time spent up to now is     2077.0 secs

     total energy              =   -8124.02216807 Ry
     estimated scf accuracy    <       0.00000134 Ry

     iteration #102     ecut=    30.00 Ry     beta= 0.40
     Davidson diagonalization with overlap
     ethr =  2.06E-10,  avg # of iterations =  3.0

     negative rho (up, down):  1.363E+00 0.000E+00

     total cpu time spent up to now is     2097.1 secs

     total energy              =   -8124.02217737 Ry
     estimated scf accuracy    <       0.00000164 Ry

     iteration #103     ecut=    30.00 Ry     beta= 0.40
     Davidson diagonalization with overlap
     ethr =  2.06E-10,  avg # of iterations =  3.0

     negative rho (up, down):  1.363E+00 0.000E+00

     total cpu time spent up to now is     2117.2 secs

     total energy              =   -8124.02218141 Ry
     estimated scf accuracy    <       0.00000223 Ry

     iteration #104     ecut=    30.00 Ry     beta= 0.40
     Davidson diagonalization with overlap
     ethr =  2.06E-10,  avg # of iterations =  3.0

     negative rho (up, down):  1.363E+00 0.000E+00

     total cpu time spent up to now is     2137.3 secs

     total energy              =   -8124.02217219 Ry
     estimated scf accuracy    <       0.00000420 Ry

     iteration #105     ecut=    30.00 Ry     beta= 0.40
     Davidson diagonalization with overlap
     ethr =  2.06E-10,  avg # of iterations =  3.0

     negative rho (up, down):  1.363E+00 0.000E+00

     total cpu time spent up to now is     2157.3 secs

     total energy              =   -8124.02215327 Ry
     estimated scf accuracy    <       0.00000882 Ry

     iteration #106     ecut=    30.00 Ry     beta= 0.40
     Davidson diagonalization with overlap
     ethr =  2.06E-10,  avg # of iterations =  3.0

     negative rho (up, down):  1.363E+00 0.000E+00

     total cpu time spent up to now is     2177.3 secs

     total energy              =   -8124.02216966 Ry
     estimated scf accuracy    <       0.00001447 Ry

     iteration #107     ecut=    30.00 Ry     beta= 0.40
     Davidson diagonalization with overlap
     ethr =  2.06E-10,  avg # of iterations =  3.0

     negative rho (up, down):  1.363E+00 0.000E+00

     total cpu time spent up to now is     2197.3 secs

     total energy              =   -8124.02215204 Ry
     estimated scf accuracy    <       0.00001322 Ry

     iteration #108     ecut=    30.00 Ry     beta= 0.40
     Davidson diagonalization with overlap
     ethr =  2.06E-10,  avg # of iterations =  3.0

     negative rho (up, down):  1.363E+00 0.000E+00

     total cpu time spent up to now is     2217.3 secs

     total energy              =   -8124.02212401 Ry
     estimated scf accuracy    <       0.00001703 Ry

     iteration #109     ecut=    30.00 Ry     beta= 0.40
     Davidson diagonalization with overlap
     ethr =  2.06E-10,  avg # of iterations =  3.0

     negative rho (up, down):  1.364E+00 0.000E+00

     total cpu time spent up to now is     2237.3 secs

     total energy              =   -8124.02205877 Ry
     estimated scf accuracy    <       0.00002333 Ry

     iteration #110     ecut=    30.00 Ry     beta= 0.40
     Davidson diagonalization with overlap
     ethr =  2.06E-10,  avg # of iterations =  4.0

     negative rho (up, down):  1.364E+00 0.000E+00

     total cpu time spent up to now is     2257.6 secs

     total energy              =   -8124.02201296 Ry
     estimated scf accuracy    <       0.00003525 Ry

     iteration #111     ecut=    30.00 Ry     beta= 0.40
     Davidson diagonalization with overlap
     ethr =  2.06E-10,  avg # of iterations =  3.0

     negative rho (up, down):  1.364E+00 0.000E+00

     total cpu time spent up to now is     2277.6 secs

     total energy              =   -8124.02194638 Ry
     estimated scf accuracy    <       0.00004388 Ry

     iteration #112     ecut=    30.00 Ry     beta= 0.40
     Davidson diagonalization with overlap
     ethr =  2.06E-10,  avg # of iterations =  3.0

     negative rho (up, down):  1.364E+00 0.000E+00

     total cpu time spent up to now is     2297.7 secs

     total energy              =   -8124.02204965 Ry
     estimated scf accuracy    <       0.00005505 Ry

     iteration #113     ecut=    30.00 Ry     beta= 0.40
     Davidson diagonalization with overlap
     ethr =  2.06E-10,  avg # of iterations =  3.0

     negative rho (up, down):  1.364E+00 0.000E+00

     total cpu time spent up to now is     2317.9 secs

     total energy              =   -8124.02204442 Ry
     estimated scf accuracy    <       0.00004137 Ry

     iteration #114     ecut=    30.00 Ry     beta= 0.40
     Davidson diagonalization with overlap
     ethr =  2.06E-10,  avg # of iterations =  3.0

     negative rho (up, down):  1.364E+00 0.000E+00

     total cpu time spent up to now is     2338.0 secs

     total energy              =   -8124.02207095 Ry
     estimated scf accuracy    <       0.00004241 Ry

     iteration #115     ecut=    30.00 Ry     beta= 0.40
     Davidson diagonalization with overlap
     ethr =  2.06E-10,  avg # of iterations =  3.0

     negative rho (up, down):  1.364E+00 0.000E+00

     total cpu time spent up to now is     2358.1 secs

     total energy              =   -8124.02206038 Ry
     estimated scf accuracy    <       0.00003915 Ry

     iteration #116     ecut=    30.00 Ry     beta= 0.40
     Davidson diagonalization with overlap
     ethr =  2.06E-10,  avg # of iterations =  3.0

     negative rho (up, down):  1.364E+00 0.000E+00

     total cpu time spent up to now is     2378.1 secs

     total energy              =   -8124.02200886 Ry
     estimated scf accuracy    <       0.00004183 Ry

     iteration #117     ecut=    30.00 Ry     beta= 0.40
     Davidson diagonalization with overlap
     ethr =  2.06E-10,  avg # of iterations =  3.0

     negative rho (up, down):  1.365E+00 0.000E+00

     total cpu time spent up to now is     2398.1 secs

     total energy              =   -8124.02195287 Ry
     estimated scf accuracy    <       0.00005137 Ry

     iteration #118     ecut=    30.00 Ry     beta= 0.40
     Davidson diagonalization with overlap
     ethr =  2.06E-10,  avg # of iterations =  3.0

     negative rho (up, down):  1.365E+00 0.000E+00

     total cpu time spent up to now is     2418.1 secs

     total energy              =   -8124.02197211 Ry
     estimated scf accuracy    <       0.00005965 Ry

     iteration #119     ecut=    30.00 Ry     beta= 0.40
     Davidson diagonalization with overlap
     ethr =  2.06E-10,  avg # of iterations =  3.0

     negative rho (up, down):  1.365E+00 0.000E+00

     total cpu time spent up to now is     2438.1 secs

     total energy              =   -8124.02185898 Ry
     estimated scf accuracy    <       0.00006069 Ry

     iteration #120     ecut=    30.00 Ry     beta= 0.40
     Davidson diagonalization with overlap
     ethr =  2.06E-10,  avg # of iterations =  5.0

     negative rho (up, down):  1.365E+00 0.000E+00

     total cpu time spent up to now is     2458.4 secs

     total energy              =   -8124.02173706 Ry
     estimated scf accuracy    <       0.00008939 Ry

     iteration #121     ecut=    30.00 Ry     beta= 0.40
     Davidson diagonalization with overlap
     ethr =  2.06E-10,  avg # of iterations =  5.0

     negative rho (up, down):  1.366E+00 0.000E+00

     total cpu time spent up to now is     2478.8 secs

     total energy              =   -8124.02138804 Ry
     estimated scf accuracy    <       0.00009824 Ry

     iteration #122     ecut=    30.00 Ry     beta= 0.40
     Davidson diagonalization with overlap
     ethr =  2.06E-10,  avg # of iterations =  5.0

     negative rho (up, down):  1.366E+00 0.000E+00

     total cpu time spent up to now is     2499.3 secs

     total energy              =   -8124.02153187 Ry
     estimated scf accuracy    <       0.00014379 Ry

     iteration #123     ecut=    30.00 Ry     beta= 0.40
     Davidson diagonalization with overlap
     ethr =  2.06E-10,  avg # of iterations =  3.0

     negative rho (up, down):  1.365E+00 0.000E+00

     total cpu time spent up to now is     2519.4 secs

     total energy              =   -8124.02170380 Ry
     estimated scf accuracy    <       0.00012564 Ry

     iteration #124     ecut=    30.00 Ry     beta= 0.40
     Davidson diagonalization with overlap
     ethr =  2.06E-10,  avg # of iterations =  3.0

     negative rho (up, down):  1.365E+00 0.000E+00

     total cpu time spent up to now is     2539.5 secs

     total energy              =   -8124.02177098 Ry
     estimated scf accuracy    <       0.00010065 Ry

     iteration #125     ecut=    30.00 Ry     beta= 0.40
     Davidson diagonalization with overlap
     ethr =  2.06E-10,  avg # of iterations =  3.0

     negative rho (up, down):  1.364E+00 0.000E+00

     total cpu time spent up to now is     2559.4 secs

     total energy              =   -8124.02216166 Ry
     estimated scf accuracy    <       0.00009351 Ry

     iteration #126     ecut=    30.00 Ry     beta= 0.40
     Davidson diagonalization with overlap
     ethr =  2.06E-10,  avg # of iterations =  5.0

     negative rho (up, down):  1.364E+00 0.000E+00

     total cpu time spent up to now is     2579.8 secs

     total energy              =   -8124.02229143 Ry
     estimated scf accuracy    <       0.00004163 Ry

     iteration #127     ecut=    30.00 Ry     beta= 0.40
     Davidson diagonalization with overlap
     ethr =  2.06E-10,  avg # of iterations =  5.0

     negative rho (up, down):  1.364E+00 0.000E+00

     total cpu time spent up to now is     2600.3 secs

     total energy              =   -8124.02222342 Ry
     estimated scf accuracy    <       0.00001851 Ry

     iteration #128     ecut=    30.00 Ry     beta= 0.40
     Davidson diagonalization with overlap
     ethr =  2.06E-10,  avg # of iterations =  5.0

     negative rho (up, down):  1.364E+00 0.000E+00

     total cpu time spent up to now is     2621.1 secs

     total energy              =   -8124.02232384 Ry
     estimated scf accuracy    <       0.00001968 Ry

     iteration #129     ecut=    30.00 Ry     beta= 0.40
     Davidson diagonalization with overlap
     ethr =  2.06E-10,  avg # of iterations =  5.0

     negative rho (up, down):  1.364E+00 0.000E+00

     total cpu time spent up to now is     2641.5 secs

     total energy              =   -8124.02234841 Ry
     estimated scf accuracy    <       0.00000339 Ry

     iteration #130     ecut=    30.00 Ry     beta= 0.40
     Davidson diagonalization with overlap
     ethr =  2.06E-10,  avg # of iterations =  5.0

     negative rho (up, down):  1.364E+00 0.000E+00

     total cpu time spent up to now is     2661.7 secs

     total energy              =   -8124.02235388 Ry
     estimated scf accuracy    <       0.00000982 Ry

     iteration #131     ecut=    30.00 Ry     beta= 0.40
     Davidson diagonalization with overlap
     ethr =  2.06E-10,  avg # of iterations =  5.0

     negative rho (up, down):  1.364E+00 0.000E+00

     total cpu time spent up to now is     2681.9 secs

     total energy              =   -8124.02235844 Ry
     estimated scf accuracy    <       0.00000294 Ry

     iteration #132     ecut=    30.00 Ry     beta= 0.40
     Davidson diagonalization with overlap
     ethr =  2.06E-10,  avg # of iterations =  3.0

     negative rho (up, down):  1.364E+00 0.000E+00

     total cpu time spent up to now is     2702.0 secs

     total energy              =   -8124.02236098 Ry
     estimated scf accuracy    <       0.00000109 Ry

     iteration #133     ecut=    30.00 Ry     beta= 0.40
     Davidson diagonalization with overlap
     ethr =  1.66E-10,  avg # of iterations =  3.0

     negative rho (up, down):  1.364E+00 0.000E+00

     total cpu time spent up to now is     2721.9 secs

     total energy              =   -8124.02236328 Ry
     estimated scf accuracy    <       0.00000071 Ry

     iteration #134     ecut=    30.00 Ry     beta= 0.40
     Davidson diagonalization with overlap
     ethr =  1.08E-10,  avg # of iterations =  3.0

     negative rho (up, down):  1.364E+00 0.000E+00

     total cpu time spent up to now is     2741.9 secs

     total energy              =   -8124.02236012 Ry
     estimated scf accuracy    <       0.00000050 Ry

     iteration #135     ecut=    30.00 Ry     beta= 0.40
     Davidson diagonalization with overlap
     ethr =  7.61E-11,  avg # of iterations =  3.0

     negative rho (up, down):  1.365E+00 0.000E+00

     total cpu time spent up to now is     2762.0 secs

     End of self-consistent calculation

          k = 0.0000 0.0000 0.0000 ( 46193 PWs)   bands (ev):

   -69.5520 -57.7225 -57.6854 -57.6778 -57.6744 -57.6713 -57.6679 -57.6640
   -57.6606 -57.6592 -57.6504 -57.6478 -57.6449 -57.6397 -57.6322 -57.6203
   -57.6153 -57.6092 -57.6069 -57.5958 -57.5911 -57.5858 -57.5827 -57.5776
   -57.5724 -57.5665 -57.5646 -57.5605 -57.5579 -57.5169 -57.4559 -57.4066
   -57.3908 -35.9721 -35.6504 -35.6292 -34.1798 -34.1670 -34.1534 -34.1362
   -34.1214 -34.1061 -34.0855 -34.0828 -34.0740 -34.0686 -34.0657 -34.0655
   -34.0575 -34.0538 -34.0517 -34.0469 -34.0463 -34.0377 -34.0286 -34.0226
   -34.0173 -34.0126 -34.0038 -33.9958 -33.9822 -33.9612 -33.9593 -33.9571
   -33.9530 -33.9469 -33.9428 -33.9366 -33.9362 -33.9216 -33.9173 -33.9116
   -33.9103 -33.9046 -33.9026 -33.8993 -33.8962 -33.8918 -33.8846 -33.8819
   -33.8785 -33.8691 -33.8661 -33.8617 -33.8612 -33.8572 -33.8529 -33.8501
   -33.8454 -33.8427 -33.8367 -33.8354 -33.8316 -33.8256 -33.8246 -33.8210
   -33.8116 -33.8070 -33.7985 -33.7961 -33.7915 -33.7882 -33.7837 -33.7807
   -33.7795 -33.7715 -33.7684 -33.7670 -33.7624 -33.7601 -33.7598 -33.7408
   -33.7383 -33.7331 -33.7274 -33.7229 -33.7214 -33.7169 -33.7015 -33.6984
   -33.6905 -33.6847 -33.6829 -33.6728 -33.6594 -33.6527 -33.6453 -33.6191
   -33.6097 -33.6045 -33.5553 -33.5208 -18.7470 -18.5528 -18.5261 -18.1262
   -18.0416 -17.8951 -17.8929 -17.8817 -17.8800 -17.8612 -17.8577 -17.8321
   -17.8118 -17.7878 -17.7849 -17.7828 -17.6924 -17.6907 -17.6886 -17.6823
   -17.6807 -17.6723 -17.6636 -17.6609 -17.6464 -17.6356 -17.6316 -17.6196
   -17.6088 -17.5773 -17.5265 -17.4902 -10.7902 -10.4172 -10.3811 -10.3750
   -10.2650 -10.2626 -10.2212  -9.7456  -9.6538  -9.5405  -9.4961  -9.4734
    -9.4692  -9.3864  -9.3785  -9.3549  -6.2801  -5.8375  -5.8208  -5.6416
    -5.4287  -5.3276  -5.2506  -5.1118  -5.1059  -5.0674  -5.0133  -5.0013
    -4.9774  -4.9389  -4.8542  -4.8465  -4.8411  -4.8249  -4.8016  -4.7927
    -4.7900  -4.7830  -4.7592  -4.7522  -4.7385  -4.7301  -4.7146  -4.7040
    -4.5795  -4.5712  -4.5364  -4.5219  -4.5150  -4.4455  -4.4408  -4.4174
    -4.4126  -4.3814  -4.3756  -4.3640  -4.3256  -4.3160  -4.3036  -4.2889
    -4.2873  -4.2629  -4.2411  -4.0240  -4.0193  -3.9851  -3.9774  -3.9637
    -3.9549  -3.9455  -3.9362  -3.9308  -3.9144  -3.8990  -3.8976  -3.8962
    -3.8815  -3.8781  -3.8574  -3.8449  -3.8207  -3.8147  -3.8104  -3.7896
    -3.7713  -3.7459  -3.7331  -3.7292  -3.7182  -3.7098  -3.7075  -3.7060
    -3.6952  -3.6850  -3.6045  -3.5751  -3.5654  -3.5423  -3.5134  -3.4878
    -3.4563  -3.4474  -3.4018  -3.3977  -3.3590  -3.3515  -3.3429  -3.3270
    -3.2975  -3.2254  -3.2164  -3.1981  -2.9973  -2.9738  -2.9428  -2.6063
    -2.5976  -2.5105  -2.3735  -2.3434  -2.3362  -2.3256  -2.2686  -2.2656
    -2.2553  -2.1989  -2.1947  -2.1827  -2.1585  -2.1471  -2.1242  -2.1107
    -2.0946  -2.0750  -1.9809  -1.9705  -1.9483  -1.8748  -1.8266  -1.3331
    -1.3297  -1.3096  -1.1582  -1.1295  -1.1175  -1.0428  -0.9648  -0.9580
    -0.9252  -0.9016  -0.8775  -0.8373  -0.8108  -0.7625  -0.7201  -0.6995
    -0.6950  -0.5973   0.4068   0.4147   0.4722   0.5014   0.5122   0.5777
     0.7592   0.8882   0.9393   1.1286   1.1640   1.1752   1.2208   1.2215
     1.2900   1.3647   1.3709   1.4288   1.4768   1.6231   1.6767   1.6987
     1.7208   1.7224   1.7467   2.1326   2.1351   2.1391   2.1552   2.1712
     2.1846   2.2154   2.2516   2.2554   2.2684   2.3142   2.3225   2.3377
     2.3518   2.3844   2.4036   2.4136   2.4213   2.4798   2.5011   2.5116
     2.5436   2.5454   2.5494   2.5590   2.5741   2.5775   2.5971   2.6006
     2.6095   2.8617   2.8679   2.8749   2.8818   2.9336   2.9375   2.9598
     2.9662   2.9857   2.9912   3.0044   3.0206   3.0258   3.0326   3.0550

     the Fermi energy is     0.5375 ev

!    total energy              =   -8124.02236946 Ry
     estimated scf accuracy    <       0.00000007 Ry
     smearing contrib. (-TS)   =      -0.00550117 Ry
     internal energy E=F+TS    =   -8124.01686829 Ry

     The total energy is F=E-TS. E is the sum of the following terms:
     one-electron contribution =  -36484.11216926 Ry
     hartree contribution      =   18299.35638986 Ry
     xc contribution           =    -912.87504062 Ry
     ewald contribution        =   13972.02190814 Ry
     one-center paw contrib.   =   -2998.40795641 Ry

     convergence has been achieved in 135 iterations

     negative rho (up, down):  1.365E+00 0.000E+00

     Forces acting on atoms (cartesian axes, Ry/au):

     atom    1 type  1   force =     0.00987653    0.00135768    0.00892977
     atom    2 type  1   force =     0.00244411    0.00040361    0.00324669
     atom    3 type  1   force =    -0.01865154   -0.00233302    0.02550510
     atom    4 type  1   force =    -0.00298734    0.00234546    0.00277298
     atom    5 type  1   force =     0.02376621    0.00682471    0.01033675
     atom    6 type  1   force =     0.01227062    0.01139114    0.00453097
     atom    7 type  1   force =     0.00150246    0.00034669    0.00316883
     atom    8 type  1   force =     0.00463474   -0.02538259    0.00996973
     atom    9 type  1   force =    -0.01036565    0.00330653    0.00575832
     atom   10 type  1   force =    -0.00025162   -0.00989905    0.00729188
     atom   11 type  1   force =     0.00345620    0.00036280    0.00305910
     atom   12 type  1   force =    -0.00649466   -0.00851516    0.00332231
     atom   13 type  1   force =    -0.00019273   -0.00117572    0.00120853
     atom   14 type  1   force =    -0.01258130   -0.00267009    0.00003189
     atom   15 type  1   force =    -0.01329010    0.01513516    0.00238496
     atom   16 type  1   force =     0.00137690   -0.00078718    0.00046101
     atom   17 type  2   force =    -0.00730064   -0.00301219    0.00953758
     atom   18 type  2   force =    -0.00439059   -0.00440382   -0.00109490
     atom   19 type  2   force =     0.00227615    0.00225379    0.00694971
     atom   20 type  2   force =    -0.00172495    0.01424404    0.00833032
     atom   21 type  2   force =     0.02355800   -0.01128195   -0.02177348
     atom   22 type  2   force =     0.00293474   -0.00379729   -0.00274350
     atom   23 type  2   force =     0.01065971   -0.00289964    0.00830307
     atom   24 type  2   force =     0.00149583   -0.00431908   -0.00051189
     atom   25 type  2   force =    -0.01985456   -0.01341401    0.01161871
     atom   26 type  2   force =    -0.00389177    0.00371529   -0.00292400
     atom   27 type  2   force =    -0.00088746    0.00062379    0.00069621
     atom   28 type  2   force =     0.01472014    0.00833289    0.01883422
     atom   29 type  2   force =     0.05918809    0.04080735    0.05616219
     atom   30 type  2   force =     0.00131505    0.00560554   -0.00242275
     atom   31 type  2   force =     0.00188494    0.00874902    0.00699681
     atom   32 type  2   force =    -0.02330215   -0.05640762    0.06457648
     atom   33 type  2   force =    -0.00033463    0.01924994   -0.02047925
     atom   34 type  2   force =     0.01000232   -0.00837424    0.00798112
     atom   35 type  2   force =     0.00365364   -0.00641104    0.00681670
     atom   36 type  2   force =    -0.05849106    0.01043196    0.06311072
     atom   37 type  2   force =    -0.01590182   -0.00059513    0.01186146
     atom   38 type  2   force =    -0.00154750    0.00296230   -0.00189736
     atom   39 type  2   force =    -0.00734242   -0.00061010   -0.00835807
     atom   40 type  2   force =    -0.00223214    0.00059699    0.00079164
     atom   41 type  2   force =     0.00424748    0.00097785    0.00728699
     atom   42 type  2   force =     0.00765578    0.00316989   -0.00302425
     atom   43 type  2   force =    -0.00413836   -0.00241483   -0.00008756
     atom   44 type  2   force =     0.00599753   -0.00010567   -0.00062960
     atom   45 type  2   force =     0.00044627   -0.00150414    0.00113617
     atom   46 type  2   force =    -0.00866255   -0.01531313    0.01421918
     atom   47 type  2   force =    -0.00043512   -0.00055920   -0.00367178
     atom   48 type  2   force =    -0.00237351    0.00784879    0.00734730
     atom   49 type  4   force =     0.00903625   -0.03190448    0.01606823
     atom   50 type  4   force =    -0.01820931    0.01687892    0.00944267
     atom   51 type  4   force =    -0.01492790   -0.01249339   -0.03610594
     atom   52 type  4   force =    -0.01447503    0.01117857    0.01674476
     atom   53 type  4   force =    -0.01495499    0.00659258   -0.01595975
     atom   54 type  4   force =    -0.00027493   -0.01375065   -0.01756724
     atom   55 type  4   force =    -0.00227096   -0.00981658    0.01973295
     atom   56 type  4   force =     0.00036347   -0.00149070   -0.00343865
     atom   57 type  4   force =     0.00667455    0.03380319   -0.03026583
     atom   58 type  4   force =    -0.02447806   -0.00309089   -0.04265264
     atom   59 type  4   force =     0.04725336    0.02352080   -0.00851312
     atom   60 type  4   force =    -0.00001012    0.02128476   -0.02181449
     atom   61 type  4   force =     0.00784964    0.02953918    0.00309090
     atom   62 type  4   force =     0.01264566   -0.00810546   -0.02207694
     atom   63 type  4   force =     0.00145176    0.00261124    0.01849575
     atom   64 type  4   force =     0.03181684   -0.01058169   -0.03034698
     atom   65 type  4   force =     0.02509989   -0.00777201    0.00745492
     atom   66 type  4   force =     0.00888931    0.00643697   -0.00404810
     atom   67 type  4   force =     0.00445715    0.00551525    0.00720770
     atom   68 type  4   force =    -0.03009538   -0.02526825    0.00781143
     atom   69 type  4   force =     0.00533637    0.00468772   -0.01212648
     atom   70 type  4   force =    -0.00030202    0.00233432   -0.01433881
     atom   71 type  4   force =     0.00155588   -0.00186596    0.01230227
     atom   72 type  4   force =     0.00822588    0.00009269   -0.01586841
     atom   73 type  4   force =    -0.00271619    0.00125858    0.01560423
     atom   74 type  4   force =    -0.01981802    0.00550615    0.00250769
     atom   75 type  4   force =     0.00157877   -0.00185538   -0.00478006
     atom   76 type  4   force =    -0.00358403   -0.00150207   -0.01246159
     atom   77 type  4   force =    -0.01145148   -0.01200891   -0.01753391
     atom   78 type  4   force =    -0.00027971   -0.01133507    0.01398730
     atom   79 type  4   force =     0.00791272   -0.00186677    0.00685070
     atom   80 type  4   force =     0.00054818    0.00145059   -0.00647562
     atom   81 type  3   force =    -0.00458485   -0.00284057   -0.17584399

     Total force =     0.297349     Total SCF correction =     0.001256


     Computing stress (Cartesian axis) and pressure


     negative rho (up, down):  1.365E+00 0.000E+00
          total   stress  (Ry/bohr**3)                   (kbar)     P=     -115.11
  -0.00079650   0.00000075  -0.00000001         -117.17        0.11       -0.00
   0.00000075  -0.00079658   0.00000141            0.11     -117.18        0.21
  -0.00000001   0.00000141  -0.00075433           -0.00        0.21     -110.97


     Writing all to output data dir /root/qe_scratch/cand178_A_Ti2CO2_Ta.save/ :
     XML data file, charge density, pseudopotentials, collected wavefunctions
 
     init_run     :     20.72s CPU     26.20s WALL (       1 calls)
     electrons    :   2265.85s CPU   2734.92s WALL (       1 calls)
     forces       :      1.78s CPU      1.81s WALL (       1 calls)
     stress       :      2.77s CPU      2.83s WALL (       1 calls)

     Called by init_run:
     wfcinit      :      0.99s CPU      1.17s WALL (       1 calls)
     potinit      :     18.43s CPU     23.20s WALL (       1 calls)
     hinit0       :      0.72s CPU      0.86s WALL (       1 calls)

     Called by electrons:
     c_bands      :    252.16s CPU    252.65s WALL (     135 calls)
     sum_band     :     33.89s CPU     33.96s WALL (     135 calls)
     v_of_rho     :     11.37s CPU     14.74s WALL (     136 calls)
     newd         :     43.27s CPU     43.52s WALL (     136 calls)
                                       43.52s GPU  (     136 calls)
     PAW_pot      :   1909.91s CPU   2373.51s WALL (     136 calls)
     mix_rho      :      8.75s CPU      8.98s WALL (     135 calls)

     Called by c_bands:
     init_us_2    :      0.80s CPU      0.81s WALL (     271 calls)
     cegterg      :    249.13s CPU    249.49s WALL (     135 calls)

     Called by *egterg:
     cdiaghg      :     22.33s CPU     22.39s WALL (     704 calls)
                                       22.38s GPU  (     704 calls)
     h_psi        :     98.91s CPU     99.33s WALL (     705 calls)
                                       99.28s GPU  (     705 calls)
     s_psi        :      1.97s CPU      1.97s WALL (     705 calls)
     g_psi        :      0.00s CPU      0.33s WALL (     569 calls)
                                        0.33s GPU  (     569 calls)

     Called by h_psi:
     h_psi:calbec :      0.14s CPU     37.50s WALL (     705 calls)
                                       37.50s GPU  (     705 calls)
     vloc_psi     :     31.32s CPU     31.56s WALL (     705 calls)
                                       31.56s GPU  (     705 calls)
     add_vuspsi   :      2.01s CPU     30.04s WALL (     705 calls)
                                       30.04s GPU  (     705 calls)

     General routines
     calbec       :      0.15s CPU      0.28s WALL (     845 calls)
     fft          :     12.83s CPU     17.00s WALL (    1791 calls)
                                        0.34s GPU  (    1655 calls)
     ffts         :      6.47s CPU      8.18s WALL (     271 calls)
                                        0.02s GPU  (     135 calls)
     fftw         :      0.29s CPU     31.28s WALL (   20979 calls)
                                       31.22s GPU  (   20979 calls)
     interpolate  :     20.48s CPU     26.11s WALL (     136 calls)
 
     Parallel routines
 
     PWSCF        :  38m12.21s CPU  46m 7.20s WALL

 
   This run was terminated on:  17:52:35   6May2026            

=------------------------------------------------------------------------------=
   JOB DONE.
=------------------------------------------------------------------------------=
Warning: ieee_invalid is signaling
Warning: ieee_divide_by_zero is signaling
Warning: ieee_underflow is signaling
Warning: ieee_inexact is signaling
FORTRAN STOP
