--------------------------------------------------------------------------
WARNING: Open MPI tried to bind a process but failed.  This is a
warning only; your job will continue, though performance may
be degraded.

  Local host:        3253031b5b37
  Application name:  /root/qe-7.3.1/bin/pw.x
  Error message:     failed to bind memory
  Location:          ../../../../../orte/mca/rtc/hwloc/rtc_hwloc.c:447

--------------------------------------------------------------------------

     Program PWSCF v.7.3.1 starts on  6May2026 at 12:48:38 

     This program is part of the open-source Quantum ESPRESSO suite
     for quantum simulation of materials; please cite
         "P. Giannozzi et al., J. Phys.:Condens. Matter 21 395502 (2009);
         "P. Giannozzi et al., J. Phys.:Condens. Matter 29 465901 (2017);
         "P. Giannozzi et al., J. Chem. Phys. 152 154105 (2020);
          URL http://www.quantum-espresso.org", 
     in publications or presentations arising from this work. More details at
     http://www.quantum-espresso.org/quote

     Parallel version (MPI & OpenMP), running on       8 processor cores
     Number of MPI processes:                 1
     Threads/MPI process:                     8

     MPI processes distributed on     1 nodes
     84170 MiB available memory on the printing compute node when the environment starts
 
     Reading input from cand025_A_NbSe2_Na.in

     Current dimensions of program PWSCF are:
     Max number of different atomic species (ntypx) = 10
     Max number of k-points (npk) =  40000
     Max angular momentum in pseudopotentials (lmaxx) =  4
     file Na.UPF: wavefunction(s)  2P renormalized
     file Nb.UPF: wavefunction(s)  4S 4P 4D renormalized
 
     Subspace diagonalization in iterative solution of the eigenvalue problem:
     a serial algorithm will be used

 
     G-vector sticks info
     --------------------
     sticks:   dense  smooth     PW     G-vecs:    dense   smooth      PW
     Sum        4807    3217    805               474203   258301   32365
 
     Using Slab Decomposition
 


     bravais-lattice index     =            0
     lattice parameter (alat)  =      19.6807  a.u.
     unit-cell volume          =   11635.2704 (a.u.)^3
     number of atoms/cell      =           28
     number of atomic types    =            3
     number of electrons       =       234.00
     number of Kohn-Sham states=          140
     kinetic-energy cutoff     =      30.0000  Ry
     charge density cutoff     =     180.0000  Ry
     scf convergence threshold =      1.0E-07
     mixing beta               =       0.4000
     number of iterations used =            8  plain     mixing
     Exchange-correlation= PBE
                           (   1   4   3   4   0   0   0)

     GPU acceleration is ACTIVE.  1 visible GPUs per MPI rank


     celldm(1)=  19.680721  celldm(2)=   0.000000  celldm(3)=   0.000000
     celldm(4)=   0.000000  celldm(5)=   0.000000  celldm(6)=   0.000000

     crystal axes: (cart. coord. in units of alat)
               a(1) = (   1.000000   0.000000   0.000000 )  
               a(2) = (  -0.500000   0.866025   0.000000 )  
               a(3) = (   0.000000   0.000000   1.762475 )  

     reciprocal axes: (cart. coord. in units 2 pi/alat)
               b(1) = (  1.000000  0.577350 -0.000000 )  
               b(2) = (  0.000000  1.154701  0.000000 )  
               b(3) = (  0.000000 -0.000000  0.567384 )  


     PseudoPot. # 1 for Na read from file:
     /root/qe_pseudos/Na.UPF
     MD5 check sum: 05b4deb74e3932c23ab016979dc8b5d4
     Pseudo is Projector augmented-wave + core cor, Zval =  9.0
     Generated using &quot;atomic&quot; code by A. Dal Corso  v.6.3
     Shape of augmentation charge: PSQ
     Using radial grid of 1121 points,  4 beta functions with: 
                l(1) =   0
                l(2) =   0
                l(3) =   1
                l(4) =   1
     Q(r) pseudized with 0 coefficients 


     PseudoPot. # 2 for Nb read from file:
     /root/qe_pseudos/Nb.UPF
     MD5 check sum: dcedcbb129af9a7271e4748e5febedb1
     Pseudo is Projector augmented-wave + core cor, Zval = 13.0
     Generated using &quot;atomic&quot; code by A. Dal Corso  v.6.2.2
     Shape of augmentation charge: PSQ
     Using radial grid of 1227 points,  6 beta functions with: 
                l(1) =   0
                l(2) =   0
                l(3) =   1
                l(4) =   1
                l(5) =   2
                l(6) =   2
     Q(r) pseudized with 0 coefficients 


     PseudoPot. # 3 for Se read from file:
     /root/qe_pseudos/Se.UPF
     MD5 check sum: 8e2a6847b5cb9faee9497ebb573e71ea
     Pseudo is Ultrasoft + core correction, Zval =  6.0
     Generated using &quot;atomic&quot; code by A. Dal Corso  v.6.3
     Using radial grid of 1211 points,  4 beta functions with: 
                l(1) =   0
                l(2) =   0
                l(3) =   1
                l(4) =   1
     Q(r) pseudized with 0 coefficients 


     atomic species   valence    mass     pseudopotential
     Na                9.00    22.98980     Na( 1.00)
     Nb               13.00    92.90640     Nb( 1.00)
     Se                6.00    78.97100     Se( 1.00)

     No symmetry found



   Cartesian axes

     site n.     atom                  positions (alat units)
         1        Nb     tau(   1) = (  -0.0100598  -0.0057972   0.8832784  )
         2        Nb     tau(   2) = (   0.3322138   0.5786193   0.8853029  )
         3        Nb     tau(   3) = (   0.5005714   0.2890029   0.8818969  )
         4        Nb     tau(   4) = (  -0.1668397   0.2886895   0.8821470  )
         5        Nb     tau(   5) = (   0.6671375  -0.0016346   0.8852446  )
         6        Nb     tau(   6) = (   0.0007191   0.5777728   0.8839257  )
         7        Nb     tau(   7) = (  -0.3334298   0.5771711   0.8821551  )
         8        Nb     tau(   8) = (   0.1669253   0.2986312   0.8842215  )
         9        Nb     tau(   9) = (   0.3419961  -0.0046593   0.8842298  )
        10        Se     tau(  10) = (   0.5017303   0.0980713   1.0443053  )
        11        Se     tau(  11) = (   0.5006235   0.6714653   1.0445070  )
        12        Se     tau(  12) = (   0.1650934   0.0954045   1.0296128  )
        13        Se     tau(  13) = (   0.6671187   0.3851681   0.7221278  )
        14        Se     tau(  14) = (   0.6669444   0.3850267   1.0410323  )
        15        Se     tau(  15) = (   0.1662516   0.0960097   0.7344419  )
        16        Se     tau(  16) = (   0.8313760   0.0962078   0.7218710  )
        17        Se     tau(  17) = (   0.8317615   0.0978141   1.0444501  )
        18        Se     tau(  18) = (  -0.0024202   0.3859430   1.0443859  )
        19        Se     tau(  19) = (   0.1670637   0.6737415   0.7224505  )
        20        Se     tau(  20) = (   0.1664372   0.6733920   1.0441248  )
        21        Se     tau(  21) = (  -0.0004451   0.3852205   0.7219730  )
        22        Se     tau(  22) = (   0.3337470   0.3859675   0.7223782  )
        23        Se     tau(  23) = (   0.4990363   0.6719646   0.7219608  )
        24        Se     tau(  24) = (  -0.1670346   0.6710096   1.0442649  )
        25        Se     tau(  25) = (   0.5010114   0.0959709   0.7223803  )
        26        Se     tau(  26) = (  -0.1666487   0.6730509   0.7220223  )
        27        Se     tau(  27) = (   0.3358342   0.3855064   1.0443388  )
        28        Na     tau(  28) = (   0.1699525   0.0977746   1.2498258  )

     number of k points=     1  Methfessel-Paxton smearing, width (Ry)=  0.0100
                       cart. coord. in units 2pi/alat
        k(    1) = (   0.0000000   0.0000000   0.0000000), wk =   2.0000000

     Dense  grid:   474203 G-vectors     FFT dimensions: (  90,  90, 150)

     Smooth grid:   258301 G-vectors     FFT dimensions: (  72,  72, 125)

     Estimated max dynamical RAM per process >       2.21 GB

     Check: negative core charge=   -0.000002

     Initial potential from superposition of free atoms

     starting charge     233.9806, renormalised to     234.0000

     negative rho (up, down):  1.356E-02 0.000E+00
     Starting wfcs are  194 randomized atomic wfcs
     Checking if some PAW data can be deallocated... 

     total cpu time spent up to now is       12.5 secs

     Self-consistent Calculation

     iteration #  1     ecut=    30.00 Ry     beta= 0.40
     Davidson diagonalization with overlap
     ethr =  1.00E-02,  avg # of iterations =  2.0

     Threshold (ethr) on eigenvalues was too large:
     Diagonalizing with lowered threshold

     Davidson diagonalization with overlap
     ethr =  4.58E-04,  avg # of iterations =  2.0

     negative rho (up, down):  1.558E-02 0.000E+00

     total cpu time spent up to now is       17.5 secs

     total energy              =   -3493.32987204 Ry
     estimated scf accuracy    <       1.22707790 Ry

     iteration #  2     ecut=    30.00 Ry     beta= 0.40
     Davidson diagonalization with overlap
     ethr =  5.24E-04,  avg # of iterations =  3.0

     negative rho (up, down):  1.675E-02 0.000E+00

     total cpu time spent up to now is       22.2 secs

     total energy              =   -3493.33671496 Ry
     estimated scf accuracy    <       1.26897994 Ry

     iteration #  3     ecut=    30.00 Ry     beta= 0.40
     Davidson diagonalization with overlap
     ethr =  5.24E-04,  avg # of iterations =  4.0

     negative rho (up, down):  1.763E-02 0.000E+00

     total cpu time spent up to now is       27.1 secs

     total energy              =   -3493.43761740 Ry
     estimated scf accuracy    <       1.16827026 Ry

     iteration #  4     ecut=    30.00 Ry     beta= 0.40
     Davidson diagonalization with overlap
     ethr =  4.99E-04,  avg # of iterations =  2.0

     negative rho (up, down):  1.854E-02 0.000E+00

     total cpu time spent up to now is       31.8 secs

     total energy              =   -3493.53103162 Ry
     estimated scf accuracy    <       0.32410439 Ry

     iteration #  5     ecut=    30.00 Ry     beta= 0.40
     Davidson diagonalization with overlap
     ethr =  1.39E-04,  avg # of iterations =  8.0

     negative rho (up, down):  1.897E-02 0.000E+00

     total cpu time spent up to now is       36.7 secs

     total energy              =   -3493.55393441 Ry
     estimated scf accuracy    <       0.17558650 Ry

     iteration #  6     ecut=    30.00 Ry     beta= 0.40
     Davidson diagonalization with overlap
     ethr =  7.50E-05,  avg # of iterations =  1.0
     Minimization algorithm failed to find Fermi energy: reverting to bisection
     Possible cause: smearing is larger than the electronic band-gap.

     negative rho (up, down):  1.976E-02 0.000E+00

     total cpu time spent up to now is       41.4 secs

     total energy              =   -3493.56731019 Ry
     estimated scf accuracy    <       0.01686979 Ry

     iteration #  7     ecut=    30.00 Ry     beta= 0.40
     Davidson diagonalization with overlap
     ethr =  7.21E-06,  avg # of iterations = 11.0

     negative rho (up, down):  2.032E-02 0.000E+00

     total cpu time spent up to now is       46.4 secs

     total energy              =   -3493.56713086 Ry
     estimated scf accuracy    <       0.01358857 Ry

     iteration #  8     ecut=    30.00 Ry     beta= 0.40
     Davidson diagonalization with overlap
     ethr =  5.81E-06,  avg # of iterations =  3.0
     Minimization algorithm failed to find Fermi energy: reverting to bisection
     Possible cause: smearing is larger than the electronic band-gap.

     negative rho (up, down):  2.083E-02 0.000E+00

     total cpu time spent up to now is       51.2 secs

     total energy              =   -3493.56754037 Ry
     estimated scf accuracy    <       0.03100949 Ry

     iteration #  9     ecut=    30.00 Ry     beta= 0.40
     Davidson diagonalization with overlap
     ethr =  5.81E-06,  avg # of iterations =  2.0

     negative rho (up, down):  2.110E-02 0.000E+00

     total cpu time spent up to now is       55.9 secs

     total energy              =   -3493.56925409 Ry
     estimated scf accuracy    <       0.00234610 Ry

     iteration # 10     ecut=    30.00 Ry     beta= 0.40
     Davidson diagonalization with overlap
     ethr =  1.00E-06,  avg # of iterations =  2.0

     negative rho (up, down):  2.119E-02 0.000E+00

     total cpu time spent up to now is       60.6 secs

     total energy              =   -3493.56943478 Ry
     estimated scf accuracy    <       0.00092486 Ry

     iteration # 11     ecut=    30.00 Ry     beta= 0.40
     Davidson diagonalization with overlap
     ethr =  3.95E-07,  avg # of iterations =  2.0

     negative rho (up, down):  2.138E-02 0.000E+00

     total cpu time spent up to now is       65.3 secs

     total energy              =   -3493.56952663 Ry
     estimated scf accuracy    <       0.00067529 Ry

     iteration # 12     ecut=    30.00 Ry     beta= 0.40
     Davidson diagonalization with overlap
     ethr =  2.89E-07,  avg # of iterations =  1.0
     Minimization algorithm failed to find Fermi energy: reverting to bisection
     Possible cause: smearing is larger than the electronic band-gap.

     negative rho (up, down):  2.145E-02 0.000E+00

     total cpu time spent up to now is       70.0 secs

     total energy              =   -3493.56956866 Ry
     estimated scf accuracy    <       0.00002740 Ry

     iteration # 13     ecut=    30.00 Ry     beta= 0.40
     Davidson diagonalization with overlap
     ethr =  1.17E-08,  avg # of iterations =  5.0

     negative rho (up, down):  2.148E-02 0.000E+00

     total cpu time spent up to now is       74.8 secs

     total energy              =   -3493.56957060 Ry
     estimated scf accuracy    <       0.00004496 Ry

     iteration # 14     ecut=    30.00 Ry     beta= 0.40
     Davidson diagonalization with overlap
     ethr =  1.17E-08,  avg # of iterations =  2.0

     negative rho (up, down):  2.151E-02 0.000E+00

     total cpu time spent up to now is       79.6 secs

     total energy              =   -3493.56957447 Ry
     estimated scf accuracy    <       0.00001449 Ry

     iteration # 15     ecut=    30.00 Ry     beta= 0.40
     Davidson diagonalization with overlap
     ethr =  6.19E-09,  avg # of iterations =  2.0

     negative rho (up, down):  2.153E-02 0.000E+00

     total cpu time spent up to now is       84.4 secs

     total energy              =   -3493.56957476 Ry
     estimated scf accuracy    <       0.00001832 Ry

     iteration # 16     ecut=    30.00 Ry     beta= 0.40
     Davidson diagonalization with overlap
     ethr =  6.19E-09,  avg # of iterations =  1.0

     negative rho (up, down):  2.154E-02 0.000E+00

     total cpu time spent up to now is       89.1 secs

     total energy              =   -3493.56957602 Ry
     estimated scf accuracy    <       0.00000403 Ry

     iteration # 17     ecut=    30.00 Ry     beta= 0.40
     Davidson diagonalization with overlap
     ethr =  1.72E-09,  avg # of iterations =  2.0

     negative rho (up, down):  2.154E-02 0.000E+00

     total cpu time spent up to now is       93.8 secs

     total energy              =   -3493.56957623 Ry
     estimated scf accuracy    <       0.00000097 Ry

     iteration # 18     ecut=    30.00 Ry     beta= 0.40
     Davidson diagonalization with overlap
     ethr =  4.16E-10,  avg # of iterations =  2.0

     negative rho (up, down):  2.154E-02 0.000E+00

     total cpu time spent up to now is       98.6 secs

     total energy              =   -3493.56957629 Ry
     estimated scf accuracy    <       0.00000177 Ry

     iteration # 19     ecut=    30.00 Ry     beta= 0.40
     Davidson diagonalization with overlap
     ethr =  4.16E-10,  avg # of iterations =  1.0

     negative rho (up, down):  2.154E-02 0.000E+00

     total cpu time spent up to now is      103.2 secs

     End of self-consistent calculation

          k = 0.0000 0.0000 0.0000 ( 32365 PWs)   bands (ev):

   -54.7634 -54.7612 -54.7522 -54.7076 -54.6995 -54.6989 -54.6587 -54.6402
   -54.6350 -54.3636 -30.9443 -30.9439 -30.9343 -30.8848 -30.8811 -30.8653
   -30.8604 -30.8391 -30.8374 -30.8315 -30.8132 -30.7952 -30.7931 -30.7654
   -30.7583 -30.7451 -30.7446 -30.7431 -30.7388 -30.7358 -30.7204 -30.7138
   -30.7069 -30.7031 -30.6597 -30.6428 -30.6392 -25.3358 -25.2946 -25.2934
   -13.4198 -12.7196 -12.3981 -12.3977 -12.3895 -12.3872 -12.3830 -12.3734
   -11.9854 -11.9767 -11.9475 -11.9336 -11.9298 -11.9294 -11.8472 -11.8122
   -11.6742 -11.6286  -4.7214  -4.2894  -4.2874  -4.2718  -4.1599  -4.1524
    -4.1494  -4.1478  -4.1473  -3.7358  -3.7328  -3.5197  -3.3562  -3.3535
    -3.3475  -3.3463  -3.2875  -3.2850  -3.2788  -3.2434  -3.2415  -3.2292
    -3.1729  -3.1677  -3.1290  -2.9604  -2.8865  -2.2780  -2.2778  -1.9716
    -1.8923  -1.8918  -1.8526  -1.8360  -1.7990  -1.6243  -1.6212  -1.4956
    -1.3948  -1.2453  -1.1694  -1.1643  -1.0868  -1.0827  -1.0596  -0.9372
    -0.9251  -0.9062  -0.8650  -0.7113  -0.7022  -0.6467  -0.6158  -0.6121
    -0.0777  -0.0705  -0.0659  -0.0503  -0.0495  -0.0012   0.8282   0.8468
     0.8526   2.1652   2.1671   2.3727   2.5538   2.7324   2.7431   2.7570
     2.7593   2.8485   2.8486   2.8757   2.8788   2.9580   2.9607   3.1360
     3.2012   3.2082   3.3674   3.4351

     the Fermi energy is     0.0102 ev

!    total energy              =   -3493.56957637 Ry
     estimated scf accuracy    <       0.00000004 Ry
     smearing contrib. (-TS)   =      -0.00726796 Ry
     internal energy E=F+TS    =   -3493.56230841 Ry

     The total energy is F=E-TS. E is the sum of the following terms:
     one-electron contribution =   -6767.74047272 Ry
     hartree contribution      =    3409.97766559 Ry
     xc contribution           =    -297.82532036 Ry
     ewald contribution        =    2146.13157765 Ry
     one-center paw contrib.   =   -1984.10575857 Ry

     convergence has been achieved in  19 iterations

     negative rho (up, down):  2.154E-02 0.000E+00

     Forces acting on atoms (cartesian axes, Ry/au):

     atom    1 type  2   force =     0.01622533    0.00953429   -0.01115270
     atom    2 type  2   force =    -0.00548228   -0.00022492   -0.00979894
     atom    3 type  2   force =     0.00139102    0.00079700   -0.00513898
     atom    4 type  2   force =    -0.00186567    0.00093010   -0.00480223
     atom    5 type  2   force =    -0.00269614   -0.00463203   -0.00972045
     atom    6 type  2   force =     0.00757359    0.00433989   -0.00721750
     atom    7 type  2   force =    -0.00010407   -0.00200627   -0.00478043
     atom    8 type  2   force =    -0.00167813   -0.01527650   -0.01131620
     atom    9 type  2   force =    -0.01410968    0.00593824   -0.01134710
     atom   10 type  3   force =    -0.00322464   -0.00015660    0.00543711
     atom   11 type  3   force =     0.00115579    0.00214419    0.00518809
     atom   12 type  3   force =    -0.00078187   -0.00022062   -0.07616801
     atom   13 type  3   force =    -0.00060142   -0.00043096   -0.00111769
     atom   14 type  3   force =    -0.00038735   -0.00019763    0.00498344
     atom   15 type  3   force =     0.00000306    0.00012205   -0.02336691
     atom   16 type  3   force =     0.00010748    0.00113175    0.00259369
     atom   17 type  3   force =     0.00240161   -0.00007160    0.00516574
     atom   18 type  3   force =     0.00234478   -0.00338664    0.00385233
     atom   19 type  3   force =    -0.00132791   -0.00067042    0.01041842
     atom   20 type  3   force =    -0.00133188   -0.00056694    0.00200290
     atom   21 type  3   force =    -0.00080415    0.00054730    0.00293770
     atom   22 type  3   force =     0.00130561    0.00015482    0.00345582
     atom   23 type  3   force =     0.00097576   -0.00061781    0.00222823
     atom   24 type  3   force =    -0.00164646    0.00368790    0.00431179
     atom   25 type  3   force =     0.00098891    0.00127902    0.00331549
     atom   26 type  3   force =     0.00010498   -0.00094821    0.00283466
     atom   27 type  3   force =    -0.00176213   -0.00277006    0.00528495
     atom   28 type  1   force =     0.00322586    0.00157068    0.11191680

     Total force =     0.144803     Total SCF correction =     0.000598


     Computing stress (Cartesian axis) and pressure


     negative rho (up, down):  2.154E-02 0.000E+00
          total   stress  (Ry/bohr**3)                   (kbar)     P=      -28.18
  -0.00019493   0.00000058   0.00000088          -28.67        0.09        0.13
   0.00000058  -0.00019568   0.00000038            0.09      -28.78        0.06
   0.00000088   0.00000038  -0.00018405            0.13        0.06      -27.07


     Writing all to output data dir /root/qe_scratch/cand025_A_NbSe2_Na.save/ :
     XML data file, charge density, pseudopotentials, collected wavefunctions
 
     init_run     :      8.96s CPU     11.76s WALL (       1 calls)
     electrons    :     75.18s CPU     90.78s WALL (       1 calls)
     forces       :      0.85s CPU      0.88s WALL (       1 calls)
     stress       :      0.52s CPU      0.57s WALL (       1 calls)

     Called by init_run:
     wfcinit      :      0.21s CPU      0.41s WALL (       1 calls)
     potinit      :      7.85s CPU     10.24s WALL (       1 calls)
     hinit0       :      0.46s CPU      0.55s WALL (       1 calls)

     Called by electrons:
     c_bands      :      4.81s CPU      4.85s WALL (      20 calls)
     sum_band     :      1.29s CPU      1.30s WALL (      20 calls)
     v_of_rho     :      1.46s CPU      2.03s WALL (      20 calls)
     newd         :      4.47s CPU      4.57s WALL (      20 calls)
                                        4.57s GPU  (      20 calls)
     PAW_pot      :     63.39s CPU     78.36s WALL (      20 calls)
     mix_rho      :      0.72s CPU      0.77s WALL (      20 calls)

     Called by c_bands:
     init_us_2    :      0.04s CPU      0.04s WALL (      41 calls)
     cegterg      :      4.70s CPU      4.72s WALL (      20 calls)

     Called by *egterg:
     cdiaghg      :      0.68s CPU      0.72s WALL (      77 calls)
                                        0.72s GPU  (      77 calls)
     h_psi        :      2.06s CPU      2.23s WALL (      79 calls)
                                        2.23s GPU  (      79 calls)
     s_psi        :      0.08s CPU      0.08s WALL (      79 calls)
     g_psi        :      0.00s CPU      0.01s WALL (      58 calls)
                                        0.01s GPU  (      58 calls)

     Called by h_psi:
     h_psi:calbec :      0.09s CPU      0.67s WALL (      79 calls)
                                        0.66s GPU  (      79 calls)
     vloc_psi     :      1.13s CPU      1.15s WALL (      79 calls)
                                        1.15s GPU  (      79 calls)
     add_vuspsi   :      0.08s CPU      0.41s WALL (      79 calls)
                                        0.41s GPU  (      79 calls)

     General routines
     calbec       :      0.09s CPU      0.24s WALL (     104 calls)
     fft          :      4.32s CPU      5.97s WALL (     284 calls)
                                        0.05s GPU  (     264 calls)
     ffts         :      2.12s CPU      2.70s WALL (      40 calls)
                                        0.00s GPU  (      20 calls)
     fftw         :      0.02s CPU      1.15s WALL (    1034 calls)
                                        1.15s GPU  (    1034 calls)
     interpolate  :      6.56s CPU      8.76s WALL (      20 calls)
 
     Parallel routines
 
     PWSCF        :   1m26.31s CPU   1m44.92s WALL

 
   This run was terminated on:  12:50:23   6May2026            

=------------------------------------------------------------------------------=
   JOB DONE.
=------------------------------------------------------------------------------=
Warning: ieee_invalid is signaling
Warning: ieee_divide_by_zero is signaling
Warning: ieee_inexact is signaling
FORTRAN STOP
