--------------------------------------------------------------------------
WARNING: Open MPI tried to bind a process but failed.  This is a
warning only; your job will continue, though performance may
be degraded.

  Local host:        3253031b5b37
  Application name:  /root/qe-7.3.1/bin/pw.x
  Error message:     failed to bind memory
  Location:          ../../../../../orte/mca/rtc/hwloc/rtc_hwloc.c:447

--------------------------------------------------------------------------

     Program PWSCF v.7.3.1 starts on  6May2026 at 11:51:36 

     This program is part of the open-source Quantum ESPRESSO suite
     for quantum simulation of materials; please cite
         "P. Giannozzi et al., J. Phys.:Condens. Matter 21 395502 (2009);
         "P. Giannozzi et al., J. Phys.:Condens. Matter 29 465901 (2017);
         "P. Giannozzi et al., J. Chem. Phys. 152 154105 (2020);
          URL http://www.quantum-espresso.org", 
     in publications or presentations arising from this work. More details at
     http://www.quantum-espresso.org/quote

     Parallel version (MPI & OpenMP), running on       8 processor cores
     Number of MPI processes:                 1
     Threads/MPI process:                     8

     MPI processes distributed on     1 nodes
     84684 MiB available memory on the printing compute node when the environment starts
 
     Reading input from cand002_A_SnS2_In.in

     Current dimensions of program PWSCF are:
     Max number of different atomic species (ntypx) = 10
     Max number of k-points (npk) =  40000
     Max angular momentum in pseudopotentials (lmaxx) =  4
     file In.UPF: wavefunction(s)  5S 4D renormalized
     file S.UPF: wavefunction(s)  3S 3P renormalized
     file Sn.UPF: wavefunction(s)  5S 4D renormalized
 
     Subspace diagonalization in iterative solution of the eigenvalue problem:
     a serial algorithm will be used

 
     G-vector sticks info
     --------------------
     sticks:   dense  smooth     PW     G-vecs:    dense   smooth      PW
     Sum        5197    3463    859               509859   277387   34603
 
     Using Slab Decomposition
 


     bravais-lattice index     =            0
     lattice parameter (alat)  =      20.4672  a.u.
     unit-cell volume          =   12496.6279 (a.u.)^3
     number of atoms/cell      =           28
     number of atomic types    =            3
     number of electrons       =       247.00
     number of Kohn-Sham states=          149
     kinetic-energy cutoff     =      30.0000  Ry
     charge density cutoff     =     180.0000  Ry
     scf convergence threshold =      1.0E-07
     mixing beta               =       0.4000
     number of iterations used =            8  plain     mixing
     Exchange-correlation= PBE
                           (   1   4   3   4   0   0   0)

     GPU acceleration is ACTIVE.  1 visible GPUs per MPI rank


     celldm(1)=  20.467172  celldm(2)=   0.000000  celldm(3)=   0.000000
     celldm(4)=   0.000000  celldm(5)=   0.000000  celldm(6)=   0.000000

     crystal axes: (cart. coord. in units of alat)
               a(1) = (   1.000000   0.000000   0.000000 )  
               a(2) = (  -0.500000   0.866025   0.000000 )  
               a(3) = (   0.000000   0.000000   1.683018 )  

     reciprocal axes: (cart. coord. in units 2 pi/alat)
               b(1) = (  1.000000  0.577350 -0.000000 )  
               b(2) = (  0.000000  1.154701  0.000000 )  
               b(3) = (  0.000000 -0.000000  0.594171 )  


     PseudoPot. # 1 for In read from file:
     /root/qe_pseudos/In.UPF
     MD5 check sum: 7267d4f9f57825930b619e54710f1f3b
     Pseudo is Ultrasoft + core correction, Zval = 13.0
     Generated using &quot;atomic&quot; code by A. Dal Corso  v.6.3
     Using radial grid of 1241 points,  6 beta functions with: 
                l(1) =   0
                l(2) =   0
                l(3) =   1
                l(4) =   1
                l(5) =   2
                l(6) =   2
     Q(r) pseudized with 0 coefficients 


     PseudoPot. # 2 for S  read from file:
     /root/qe_pseudos/S.UPF
     MD5 check sum: fb45dfebcf3e72a4e1bd4a866ec2e262
     Pseudo is Projector augmented-wave + core cor, Zval =  6.0
     Generated using &quot;atomic&quot; code by A. Dal Corso  v.6.3
     Shape of augmentation charge: PSQ
     Using radial grid of 1151 points,  6 beta functions with: 
                l(1) =   0
                l(2) =   0
                l(3) =   1
                l(4) =   1
                l(5) =   2
                l(6) =   2
     Q(r) pseudized with 0 coefficients 


     PseudoPot. # 3 for Sn read from file:
     /root/qe_pseudos/Sn.UPF
     MD5 check sum: 72e22d5a9e1ec4fde6a02e1f963898e9
     Pseudo is Ultrasoft + core correction, Zval = 14.0
     Generated using &quot;atomic&quot; code by A. Dal Corso  v.6.3
     Using radial grid of 1243 points,  6 beta functions with: 
                l(1) =   0
                l(2) =   0
                l(3) =   1
                l(4) =   1
                l(5) =   2
                l(6) =   2
     Q(r) pseudized with 0 coefficients 


     atomic species   valence    mass     pseudopotential
     In               13.00   114.81800     In( 1.00)
     S                 6.00    32.06000     S ( 1.00)
     Sn               14.00   118.71000     Sn( 1.00)

     No symmetry found



   Cartesian axes

     site n.     atom                  positions (alat units)
         1        S      tau(   1) = (   0.4900215   0.6588854   0.9985058  )
         2        S      tau(   2) = (   0.6538486   0.3745269   0.6834131  )
         3        S      tau(   3) = (   0.6537706   0.3750821   0.9996569  )
         4        S      tau(   4) = (   0.8128499   0.0820383   0.6726769  )
         5        S      tau(   5) = (   0.8125010   0.0813966   1.0112085  )
         6        S      tau(   6) = (   0.1665749   0.6751931   0.6901494  )
         7        S      tau(   7) = (   0.1666139   0.6751546   0.9924514  )
         8        S      tau(   8) = (   0.3278882   0.3829211   0.6923310  )
         9        S      tau(   9) = (   0.4898790   0.6587225   0.6843490  )
        10        S      tau(  10) = (   0.5023913   0.0962806   0.6905868  )
        11        S      tau(  11) = (   0.3273763   0.3832119   0.9904406  )
        12        S      tau(  12) = (  -0.1619037   0.6807095   0.6918187  )
        13        S      tau(  13) = (  -0.1615245   0.6799063   0.9918001  )
        14        S      tau(  14) = (  -0.0029154   0.3945453   0.6909524  )
        15        S      tau(  15) = (  -0.0023662   0.3945489   0.9914137  )
        16        S      tau(  16) = (   0.1829372   0.1026428   0.6875176  )
        17        S      tau(  17) = (   0.1824803   0.1023541   0.9950766  )
        18        S      tau(  18) = (   0.5021559   0.0966926   0.9930255  )
        19        Sn     tau(  19) = (   0.1686614   0.2852875   0.8412727  )
        20        Sn     tau(  20) = (   0.3448997   0.0032323   0.8413894  )
        21        Sn     tau(  21) = (   0.0058242   0.5909833   0.8413370  )
        22        Sn     tau(  22) = (  -0.3320475   0.5795064   0.8414597  )
        23        Sn     tau(  23) = (   0.6617638  -0.0015783   0.8415873  )
        24        Sn     tau(  24) = (   0.4974670   0.2854003   0.8414638  )
        25        Sn     tau(  25) = (  -0.1785087   0.3669810   0.8417125  )
        26        Sn     tau(  26) = (   0.3307502   0.5746836   0.8413294  )
        27        Sn     tau(  27) = (   0.0621188  -0.0444636   0.8414465  )
        28        In     tau(  28) = (  -0.0868409   0.1357718   0.8418753  )

     number of k points=     1  Methfessel-Paxton smearing, width (Ry)=  0.0100
                       cart. coord. in units 2pi/alat
        k(    1) = (   0.0000000   0.0000000   0.0000000), wk =   2.0000000

     Dense  grid:   509859 G-vectors     FFT dimensions: (  90,  90, 150)

     Smooth grid:   277387 G-vectors     FFT dimensions: (  72,  72, 125)

     Estimated max dynamical RAM per process >       2.47 GB

     Check: negative core charge=   -0.000003

     Initial potential from superposition of free atoms

     starting charge     246.9832, renormalised to     247.0000

     negative rho (up, down):  2.677E-02 0.000E+00
     Starting wfcs are  162 randomized atomic wfcs
     Checking if some PAW data can be deallocated... 

     total cpu time spent up to now is       16.2 secs

     Self-consistent Calculation

     iteration #  1     ecut=    30.00 Ry     beta= 0.40
     Davidson diagonalization with overlap
     ethr =  1.00E-02,  avg # of iterations =  4.0

     negative rho (up, down):  2.575E-02 0.000E+00

     total cpu time spent up to now is       24.5 secs

     total energy              =   -2793.40867642 Ry
     estimated scf accuracy    <       2.49851841 Ry

     iteration #  2     ecut=    30.00 Ry     beta= 0.40
     Davidson diagonalization with overlap
     ethr =  1.01E-03,  avg # of iterations =  3.0

     negative rho (up, down):  2.601E-02 0.000E+00

     total cpu time spent up to now is       32.6 secs

     total energy              =   -2793.61903780 Ry
     estimated scf accuracy    <       2.82584712 Ry

     iteration #  3     ecut=    30.00 Ry     beta= 0.40
     Davidson diagonalization with overlap
     ethr =  1.01E-03,  avg # of iterations =  2.0
     Minimization algorithm failed to find Fermi energy: reverting to bisection
     Possible cause: smearing is larger than the electronic band-gap.

     negative rho (up, down):  2.612E-02 0.000E+00

     total cpu time spent up to now is       40.8 secs

     total energy              =   -2794.05999225 Ry
     estimated scf accuracy    <       1.35860157 Ry

     iteration #  4     ecut=    30.00 Ry     beta= 0.40
     Davidson diagonalization with overlap
     ethr =  5.50E-04,  avg # of iterations =  2.0

     negative rho (up, down):  2.601E-02 0.000E+00

     total cpu time spent up to now is       48.9 secs

     total energy              =   -2794.14957315 Ry
     estimated scf accuracy    <       0.22212834 Ry

     iteration #  5     ecut=    30.00 Ry     beta= 0.40
     Davidson diagonalization with overlap
     ethr =  8.99E-05,  avg # of iterations = 18.0

     negative rho (up, down):  2.586E-02 0.000E+00

     total cpu time spent up to now is       57.8 secs

     total energy              =   -2794.16046248 Ry
     estimated scf accuracy    <       0.20270974 Ry

     iteration #  6     ecut=    30.00 Ry     beta= 0.40
     Davidson diagonalization with overlap
     ethr =  8.21E-05,  avg # of iterations =  2.0

     negative rho (up, down):  2.576E-02 0.000E+00

     total cpu time spent up to now is       65.8 secs

     total energy              =   -2794.17161258 Ry
     estimated scf accuracy    <       0.11465260 Ry

     iteration #  7     ecut=    30.00 Ry     beta= 0.40
     Davidson diagonalization with overlap
     ethr =  4.64E-05,  avg # of iterations =  2.0

     negative rho (up, down):  2.565E-02 0.000E+00

     total cpu time spent up to now is       73.9 secs

     total energy              =   -2794.18080375 Ry
     estimated scf accuracy    <       0.03026790 Ry

     iteration #  8     ecut=    30.00 Ry     beta= 0.40
     Davidson diagonalization with overlap
     ethr =  1.23E-05,  avg # of iterations = 20.0

     negative rho (up, down):  2.551E-02 0.000E+00

     total cpu time spent up to now is       82.6 secs

     total energy              =   -2794.18312277 Ry
     estimated scf accuracy    <       0.00920141 Ry

     iteration #  9     ecut=    30.00 Ry     beta= 0.40
     Davidson diagonalization with overlap
     ethr =  3.73E-06,  avg # of iterations =  2.0

     negative rho (up, down):  2.548E-02 0.000E+00

     total cpu time spent up to now is       90.7 secs

     total energy              =   -2794.18401539 Ry
     estimated scf accuracy    <       0.00326448 Ry

     iteration # 10     ecut=    30.00 Ry     beta= 0.40
     Davidson diagonalization with overlap
     ethr =  1.32E-06,  avg # of iterations =  2.0

     negative rho (up, down):  2.548E-02 0.000E+00

     total cpu time spent up to now is       98.8 secs

     total energy              =   -2794.18407655 Ry
     estimated scf accuracy    <       0.00077507 Ry

     iteration # 11     ecut=    30.00 Ry     beta= 0.40
     Davidson diagonalization with overlap
     ethr =  3.14E-07,  avg # of iterations =  2.0

     negative rho (up, down):  2.550E-02 0.000E+00

     total cpu time spent up to now is      106.9 secs

     total energy              =   -2794.18407322 Ry
     estimated scf accuracy    <       0.00034168 Ry

     iteration # 12     ecut=    30.00 Ry     beta= 0.40
     Davidson diagonalization with overlap
     ethr =  1.38E-07,  avg # of iterations =  2.0

     negative rho (up, down):  2.548E-02 0.000E+00

     total cpu time spent up to now is      115.0 secs

     total energy              =   -2794.18411868 Ry
     estimated scf accuracy    <       0.00049838 Ry

     iteration # 13     ecut=    30.00 Ry     beta= 0.40
     Davidson diagonalization with overlap
     ethr =  1.38E-07,  avg # of iterations =  2.0

     negative rho (up, down):  2.548E-02 0.000E+00

     total cpu time spent up to now is      123.2 secs

     total energy              =   -2794.18416236 Ry
     estimated scf accuracy    <       0.00004864 Ry

     iteration # 14     ecut=    30.00 Ry     beta= 0.40
     Davidson diagonalization with overlap
     ethr =  1.97E-08,  avg # of iterations =  2.0

     negative rho (up, down):  2.548E-02 0.000E+00

     total cpu time spent up to now is      131.3 secs

     total energy              =   -2794.18416758 Ry
     estimated scf accuracy    <       0.00000448 Ry

     iteration # 15     ecut=    30.00 Ry     beta= 0.40
     Davidson diagonalization with overlap
     ethr =  1.82E-09,  avg # of iterations =  3.0

     negative rho (up, down):  2.548E-02 0.000E+00

     total cpu time spent up to now is      139.3 secs

     total energy              =   -2794.18416861 Ry
     estimated scf accuracy    <       0.00000149 Ry

     iteration # 16     ecut=    30.00 Ry     beta= 0.40
     Davidson diagonalization with overlap
     ethr =  6.04E-10,  avg # of iterations =  2.0

     negative rho (up, down):  2.548E-02 0.000E+00

     total cpu time spent up to now is      147.5 secs

     total energy              =   -2794.18416870 Ry
     estimated scf accuracy    <       0.00000050 Ry

     iteration # 17     ecut=    30.00 Ry     beta= 0.40
     Davidson diagonalization with overlap
     ethr =  2.03E-10,  avg # of iterations =  2.0

     negative rho (up, down):  2.548E-02 0.000E+00

     total cpu time spent up to now is      155.6 secs

     total energy              =   -2794.18416871 Ry
     estimated scf accuracy    <       0.00000081 Ry

     iteration # 18     ecut=    30.00 Ry     beta= 0.40
     Davidson diagonalization with overlap
     ethr =  2.03E-10,  avg # of iterations =  2.0

     negative rho (up, down):  2.548E-02 0.000E+00

     total cpu time spent up to now is      163.7 secs

     total energy              =   -2794.18416876 Ry
     estimated scf accuracy    <       0.00000019 Ry

     iteration # 19     ecut=    30.00 Ry     beta= 0.40
     Davidson diagonalization with overlap
     ethr =  7.63E-11,  avg # of iterations =  2.0

     negative rho (up, down):  2.548E-02 0.000E+00

     total cpu time spent up to now is      171.8 secs

     End of self-consistent calculation

          k = 0.0000 0.0000 0.0000 ( 34603 PWs)   bands (ev):

   -23.3539 -23.1568 -23.1272 -23.1108 -23.0791 -23.0604 -23.0519 -23.0506
   -23.0298 -23.0207 -23.0056 -22.9940 -22.9770 -22.9655 -22.9477 -22.9456
   -22.9329 -22.9254 -22.9143 -22.8978 -22.8807 -22.8780 -22.8773 -22.8712
   -22.8681 -22.8654 -22.8539 -22.8536 -22.8392 -22.8367 -22.8249 -22.8060
   -22.7842 -22.7486 -22.7351 -22.7133 -22.7063 -22.6877 -22.6616 -22.6606
   -22.6551 -22.6319 -22.6223 -22.6042 -22.5909 -16.5665 -16.4324 -16.0793
   -16.0524 -15.9111 -15.6367 -14.6984 -14.5775 -14.5483 -14.5020 -14.4679
   -14.0801 -13.9806 -13.6835 -13.3761 -13.3504 -13.2672 -13.2157 -13.1813
   -13.0963 -12.8556 -12.6602 -12.2609  -9.2946  -9.0838  -8.9443  -8.7405
    -8.4681  -8.4379  -8.1792  -8.1697  -7.8512  -6.5527  -6.2141  -5.8791
    -5.8442  -5.7631  -5.5249  -5.5057  -5.4566  -5.3366  -5.3287  -5.2589
    -5.1922  -5.1636  -5.0728  -5.0538  -4.9936  -4.6873  -4.6200  -4.0515
    -4.0107  -3.8138  -3.6897  -3.6081  -3.5507  -3.5173  -3.3058  -3.1675
    -2.8360  -2.8195  -2.7137  -2.5843  -2.5175  -2.5004  -2.4348  -2.3860
    -2.3378  -2.2816  -2.1869  -2.1284  -2.0669  -2.0498  -2.0034  -1.9496
    -1.6916  -1.3816  -1.3782  -1.2377  -1.1942  -1.0816  -0.9316  -0.6756
    -0.3981  -0.2773  -0.2023  -0.1655  -0.0646   0.6943   1.0968   1.2484
     1.3805   1.6962   2.1108   2.4437   2.8584   2.9967   3.0716   3.3171
     3.3862   3.4784   3.5334   3.6567   3.6765

     the Fermi energy is    -1.2586 ev

!    total energy              =   -2794.18416874 Ry
     estimated scf accuracy    <       0.00000007 Ry
     smearing contrib. (-TS)   =      -0.00103454 Ry
     internal energy E=F+TS    =   -2794.18313419 Ry

     The total energy is F=E-TS. E is the sum of the following terms:
     one-electron contribution =   -7663.02683568 Ry
     hartree contribution      =    3905.77044921 Ry
     xc contribution           =    -570.45393949 Ry
     ewald contribution        =    2363.98960021 Ry
     one-center paw contrib.   =    -830.46240844 Ry

     convergence has been achieved in  19 iterations

     negative rho (up, down):  2.548E-02 0.000E+00

     Forces acting on atoms (cartesian axes, Ry/au):

     atom    1 type  2   force =     0.02733401    0.00003302   -0.01003767
     atom    2 type  2   force =     0.00565626    0.00449255    0.00202748
     atom    3 type  2   force =     0.00522096    0.00432881   -0.00174940
     atom    4 type  2   force =    -0.06883704   -0.02521353   -0.10623622
     atom    5 type  2   force =    -0.06671380   -0.02449588    0.10206829
     atom    6 type  2   force =     0.00456368   -0.00381799    0.00545474
     atom    7 type  2   force =     0.00434761   -0.00366518   -0.00544148
     atom    8 type  2   force =    -0.00120049   -0.00217857   -0.00060664
     atom    9 type  2   force =     0.02764739    0.00001318    0.00975774
     atom   10 type  2   force =     0.00007350    0.00571942    0.00521186
     atom   11 type  2   force =    -0.00118675   -0.00229077    0.00048664
     atom   12 type  2   force =    -0.01625984   -0.00319322    0.00066772
     atom   13 type  2   force =    -0.01575510   -0.00276416   -0.00279719
     atom   14 type  2   force =    -0.00286965    0.00165761   -0.00759313
     atom   15 type  2   force =    -0.00225985    0.00060081    0.00876318
     atom   16 type  2   force =     0.00703954   -0.01205219   -0.00369449
     atom   17 type  2   force =     0.00752351   -0.01190512    0.00431734
     atom   18 type  2   force =    -0.00086889    0.00602629   -0.00723397
     atom   19 type  3   force =     0.00970195    0.01679217   -0.00032513
     atom   20 type  3   force =     0.00841570    0.01248949    0.00177065
     atom   21 type  3   force =     0.01103689   -0.00187583    0.00008937
     atom   22 type  3   force =     0.00631302   -0.00477023    0.00061206
     atom   23 type  3   force =     0.02226040    0.01382583    0.00095215
     atom   24 type  3   force =     0.00362018   -0.00910337    0.00078634
     atom   25 type  3   force =    -0.01378453   -0.02399177   -0.00082345
     atom   26 type  3   force =    -0.01274814    0.00683957    0.00007538
     atom   27 type  3   force =    -0.00952417   -0.00551239   -0.00055260
     atom   28 type  1   force =     0.06125365    0.06401146    0.00405044

     Total force =     0.214216     Total SCF correction =     0.001063


     Computing stress (Cartesian axis) and pressure


     negative rho (up, down):  2.548E-02 0.000E+00
          total   stress  (Ry/bohr**3)                   (kbar)     P=     -392.17
  -0.00260186   0.00001173   0.00000041         -382.75        1.73        0.06
   0.00001173  -0.00260175   0.00000013            1.73     -382.73        0.02
   0.00000041   0.00000013  -0.00279409            0.06        0.02     -411.03


     Writing all to output data dir /root/qe_scratch/cand002_A_SnS2_In.save/ :
     XML data file, charge density, pseudopotentials, collected wavefunctions
 
     init_run     :     11.76s CPU     15.24s WALL (       1 calls)
     electrons    :    127.49s CPU    155.62s WALL (       1 calls)
     forces       :      0.33s CPU      0.38s WALL (       1 calls)
     stress       :      0.93s CPU      0.95s WALL (       1 calls)

     Called by init_run:
     wfcinit      :      0.21s CPU      0.42s WALL (       1 calls)
     potinit      :     10.74s CPU     13.73s WALL (       1 calls)
     hinit0       :      0.54s CPU      0.63s WALL (       1 calls)

     Called by electrons:
     c_bands      :      6.76s CPU      6.80s WALL (      19 calls)
     sum_band     :      1.95s CPU      1.96s WALL (      19 calls)
     v_of_rho     :      1.55s CPU      2.04s WALL (      20 calls)
     newd         :      1.16s CPU      1.26s WALL (      20 calls)
                                        1.26s GPU  (      20 calls)
     PAW_pot      :    119.02s CPU    147.19s WALL (      20 calls)
     mix_rho      :      0.75s CPU      0.81s WALL (      19 calls)

     Called by c_bands:
     init_us_2    :      0.05s CPU      0.05s WALL (      39 calls)
     cegterg      :      6.59s CPU      6.62s WALL (      19 calls)

     Called by *egterg:
     cdiaghg      :      0.89s CPU      0.91s WALL (      95 calls)
                                        0.91s GPU  (      95 calls)
     h_psi        :      2.62s CPU      2.82s WALL (      96 calls)
                                        2.82s GPU  (      96 calls)
     s_psi        :      0.11s CPU      0.11s WALL (      96 calls)
     g_psi        :      0.00s CPU      0.01s WALL (      76 calls)
                                        0.01s GPU  (      76 calls)

     Called by h_psi:
     h_psi:calbec :      0.08s CPU      0.92s WALL (      96 calls)
                                        0.92s GPU  (      96 calls)
     vloc_psi     :      1.14s CPU      1.17s WALL (      96 calls)
                                        1.17s GPU  (      96 calls)
     add_vuspsi   :      0.11s CPU      0.73s WALL (      96 calls)
                                        0.73s GPU  (      96 calls)

     General routines
     calbec       :      0.08s CPU      0.26s WALL (     120 calls)
     fft          :      4.34s CPU      5.97s WALL (     283 calls)
                                        0.05s GPU  (     263 calls)
     ffts         :      2.14s CPU      2.74s WALL (      39 calls)
                                        0.00s GPU  (      19 calls)
     fftw         :      0.02s CPU      1.17s WALL (    1124 calls)
                                        1.16s GPU  (    1124 calls)
     interpolate  :      6.58s CPU      8.79s WALL (      20 calls)
 
     Parallel routines
 
     PWSCF        :   2m21.54s CPU   2m53.39s WALL

 
   This run was terminated on:  11:54:29   6May2026            

=------------------------------------------------------------------------------=
   JOB DONE.
=------------------------------------------------------------------------------=
Warning: ieee_invalid is signaling
Warning: ieee_divide_by_zero is signaling
Warning: ieee_inexact is signaling
FORTRAN STOP
