--------------------------------------------------------------------------
WARNING: Open MPI tried to bind a process but failed.  This is a
warning only; your job will continue, though performance may
be degraded.

  Local host:        3253031b5b37
  Application name:  /root/qe-7.3.1/bin/pw.x
  Error message:     failed to bind memory
  Location:          ../../../../../orte/mca/rtc/hwloc/rtc_hwloc.c:447

--------------------------------------------------------------------------

     Program PWSCF v.7.3.1 starts on  7May2026 at  2: 5: 3 

     This program is part of the open-source Quantum ESPRESSO suite
     for quantum simulation of materials; please cite
         "P. Giannozzi et al., J. Phys.:Condens. Matter 21 395502 (2009);
         "P. Giannozzi et al., J. Phys.:Condens. Matter 29 465901 (2017);
         "P. Giannozzi et al., J. Chem. Phys. 152 154105 (2020);
          URL http://www.quantum-espresso.org", 
     in publications or presentations arising from this work. More details at
     http://www.quantum-espresso.org/quote

     Parallel version (MPI & OpenMP), running on       8 processor cores
     Number of MPI processes:                 1
     Threads/MPI process:                     8

     MPI processes distributed on     1 nodes
     91799 MiB available memory on the printing compute node when the environment starts
 
     Reading input from cand119_B_Bi2I6_Cs.in

     Current dimensions of program PWSCF are:
     Max number of different atomic species (ntypx) = 10
     Max number of k-points (npk) =  40000
     Max angular momentum in pseudopotentials (lmaxx) =  4
     file Bi.UPF: wavefunction(s)  6P 5D renormalized
     file Cs.UPF: wavefunction(s)  5S 6S renormalized
     file I.UPF: wavefunction(s)  5S renormalized
 
     Subspace diagonalization in iterative solution of the eigenvalue problem:
     a serial algorithm will be used

 
     G-vector sticks info
     --------------------
     sticks:   dense  smooth     PW     G-vecs:    dense   smooth      PW
     Sum       10879    7255   1813              1088725   592833   74029
 
     Using Slab Decomposition
 


     bravais-lattice index     =            0
     lattice parameter (alat)  =      29.6011  a.u.
     unit-cell volume          =   26703.3569 (a.u.)^3
     number of atoms/cell      =           33
     number of atomic types    =            3
     number of electrons       =       297.00
     number of Kohn-Sham states=          179
     kinetic-energy cutoff     =      30.0000  Ry
     charge density cutoff     =     180.0000  Ry
     scf convergence threshold =      1.0E-07
     mixing beta               =       0.4000
     number of iterations used =            8  plain     mixing
     Exchange-correlation= SLA  PW   PBX  PBC
                           (   1   4   3   4   0   0   0)

     GPU acceleration is ACTIVE.  1 visible GPUs per MPI rank


     celldm(1)=  29.601147  celldm(2)=   0.000000  celldm(3)=   0.000000
     celldm(4)=   0.000000  celldm(5)=   0.000000  celldm(6)=   0.000000

     crystal axes: (cart. coord. in units of alat)
               a(1) = (   1.000000   0.000000   0.000000 )  
               a(2) = (  -0.500000   0.866025   0.000000 )  
               a(3) = (   0.000000   0.000000   1.188802 )  

     reciprocal axes: (cart. coord. in units 2 pi/alat)
               b(1) = (  1.000000  0.577350 -0.000000 )  
               b(2) = (  0.000000  1.154701  0.000000 )  
               b(3) = (  0.000000 -0.000000  0.841183 )  


     PseudoPot. # 1 for Bi read from file:
     /root/qe_pseudos/Bi.UPF
     MD5 check sum: 266ded784ae3bc462508ed03f0f37963
     Pseudo is Projector augmented-wave + core cor, Zval = 15.0
     Generated using &quot;atomic&quot; code by A. Dal Corso  v.6.2.2
     Shape of augmentation charge: PSQ
     Using radial grid of 1283 points,  6 beta functions with: 
                l(1) =   0
                l(2) =   0
                l(3) =   1
                l(4) =   1
                l(5) =   2
                l(6) =   2
     Q(r) pseudized with 0 coefficients 


     PseudoPot. # 2 for Cs read from file:
     /root/qe_pseudos/Cs.UPF
     MD5 check sum: b82c75cc2e1f4ff73b6412cffeb9c584
     Pseudo is Projector augmented-wave + core cor, Zval =  9.0
     Generated using &quot;atomic&quot; code by A. Dal Corso  v.6.4.1
     Shape of augmentation charge: PSQ
     Using radial grid of 1251 points,  9 beta functions with: 
                l(1) =   0
                l(2) =   0
                l(3) =   0
                l(4) =   1
                l(5) =   1
                l(6) =   2
                l(7) =   2
                l(8) =   3
                l(9) =   3
     Q(r) pseudized with 0 coefficients 


     PseudoPot. # 3 for I  read from file:
     /root/qe_pseudos/I.UPF
     MD5 check sum: cd3d296c3308a581e1559a0c8a554cb5
     Pseudo is Projector augmented-wave + core cor, Zval =  7.0
     Generated using &quot;atomic&quot; code by A. Dal Corso  v.6.3
     Shape of augmentation charge: PSQ
     Using radial grid of 1247 points,  6 beta functions with: 
                l(1) =   0
                l(2) =   0
                l(3) =   1
                l(4) =   1
                l(5) =   2
                l(6) =   2
     Q(r) pseudized with 0 coefficients 


     atomic species   valence    mass     pseudopotential
     Bi               15.00   208.98040     Bi( 1.00)
     Cs                9.00   132.90550     Cs( 1.00)
     I                 7.00   126.90450     I ( 1.00)

     No symmetry found



   Cartesian axes

     site n.     atom                  positions (alat units)
         1        Bi     tau(   1) = (   0.2504043   0.1427873   0.5940094  )
         2        Bi     tau(   2) = (   0.2504399   0.7200897   0.5944335  )
         3        Bi     tau(   3) = (   0.4994767   0.5775789   0.5942630  )
         4        Bi     tau(   4) = (   0.4944696   0.2886954   0.5956604  )
         5        Bi     tau(   5) = (  -0.2501979   0.7221867   0.5941689  )
         6        Bi     tau(   6) = (   0.0023828   0.5820855   0.5953028  )
         7        Bi     tau(   7) = (   0.7574665   0.1367943   0.5868250  )
         8        Bi     tau(   8) = (   0.0024164   0.2789840   0.5868863  )
         9        I      tau(   9) = (  -0.0740954   0.1282762   0.6951947  )
        10        I      tau(  10) = (   0.4130277   0.7116883   0.7108942  )
        11        I      tau(  11) = (   0.4209714   0.4357209   0.7077458  )
        12        I      tau(  12) = (   0.0945722   0.7188495   0.4738032  )
        13        I      tau(  13) = (   0.3396979   0.5875595   0.4761435  )
        14        I      tau(  14) = (   0.5749208   0.4313352   0.4810458  )
        15        I      tau(  15) = (   0.3212929  -0.0006887   0.4759991  )
        16        I      tau(  16) = (   0.4024554   0.1516228   0.7079928  )
        17        I      tau(  17) = (   0.6084321   0.2495365   0.7454232  )
        18        I      tau(  18) = (   0.1779567   0.8662899   0.7058973  )
        19        I      tau(  19) = (   0.3306969   0.2771983   0.4736698  )
        20        I      tau(  20) = (   0.5902082   0.1535080   0.4817624  )
        21        I      tau(  21) = (   0.8244703   0.0023052   0.4735127  )
        22        I      tau(  22) = (   0.0856868   0.1536846   0.4735841  )
        23        I      tau(  23) = (   0.1670068   0.5930406   0.7083930  )
        24        I      tau(  24) = (  -0.3389452   0.5865731   0.7103979  )
        25        I      tau(  25) = (  -0.0875054   0.7193314   0.7074380  )
        26        I      tau(  26) = (  -0.0218983   0.4648930   0.7455340  )
        27        I      tau(  27) = (   0.5884795   0.7127867   0.4780558  )
        28        I      tau(  28) = (  -0.1609169   0.5838621   0.4809876  )
        29        I      tau(  29) = (   0.0720027   0.4314854   0.4818410  )
        30        I      tau(  30) = (   0.8546139   0.2520266   0.4508441  )
        31        I      tau(  31) = (  -0.3232574   0.8639941   0.7107598  )
        32        I      tau(  32) = (   0.1605838   0.2790278   0.7056822  )
        33        Cs     tau(  33) = (   0.7984737   0.3480936   0.6688148  )

     number of k points=     1  Methfessel-Paxton smearing, width (Ry)=  0.0100
                       cart. coord. in units 2pi/alat
        k(    1) = (   0.0000000   0.0000000   0.0000000), wk =   2.0000000

     Dense  grid:  1088725 G-vectors     FFT dimensions: ( 128, 128, 160)

     Smooth grid:   592833 G-vectors     FFT dimensions: ( 108, 108, 125)

     Estimated max dynamical RAM per process >      12.24 GB

 %%%%%%%%%%%%%%%%%%%%%%%%%%%%%%%%%%%%%%%%%%%%%%%%%%%%%%%%%%%%%%%%%%%%%%%%%%%%%%
     Error in routine  ylmr2 (15):
     l too large, or wrong number of Ylm required
 %%%%%%%%%%%%%%%%%%%%%%%%%%%%%%%%%%%%%%%%%%%%%%%%%%%%%%%%%%%%%%%%%%%%%%%%%%%%%%

     stopping ...
--------------------------------------------------------------------------
MPI_ABORT was invoked on rank 0 in communicator MPI_COMM_WORLD
with errorcode 15.

NOTE: invoking MPI_ABORT causes Open MPI to kill all MPI processes.
You may or may not see output from other processes, depending on
exactly when Open MPI kills them.
--------------------------------------------------------------------------
