--------------------------------------------------------------------------
WARNING: Open MPI tried to bind a process but failed.  This is a
warning only; your job will continue, though performance may
be degraded.

  Local host:        3253031b5b37
  Application name:  /root/qe-7.3.1/bin/pw.x
  Error message:     failed to bind memory
  Location:          ../../../../../orte/mca/rtc/hwloc/rtc_hwloc.c:447

--------------------------------------------------------------------------

     Program PWSCF v.7.3.1 starts on  6May2026 at 15:37:54 

     This program is part of the open-source Quantum ESPRESSO suite
     for quantum simulation of materials; please cite
         "P. Giannozzi et al., J. Phys.:Condens. Matter 21 395502 (2009);
         "P. Giannozzi et al., J. Phys.:Condens. Matter 29 465901 (2017);
         "P. Giannozzi et al., J. Chem. Phys. 152 154105 (2020);
          URL http://www.quantum-espresso.org", 
     in publications or presentations arising from this work. More details at
     http://www.quantum-espresso.org/quote

     Parallel version (MPI & OpenMP), running on       8 processor cores
     Number of MPI processes:                 1
     Threads/MPI process:                     8

     MPI processes distributed on     1 nodes
     81584 MiB available memory on the printing compute node when the environment starts
 
     Reading input from cand168_A_Ti2CO2_Cd.in

     Current dimensions of program PWSCF are:
     Max number of different atomic species (ntypx) = 10
     Max number of k-points (npk) =  40000
     Max angular momentum in pseudopotentials (lmaxx) =  4
     file Cd.UPF: wavefunction(s)  5S 4D renormalized
     file Ti.UPF: wavefunction(s)  3S 3P 3D renormalized
 
     Subspace diagonalization in iterative solution of the eigenvalue problem:
     a serial algorithm will be used

 
     G-vector sticks info
     --------------------
     sticks:   dense  smooth     PW     G-vecs:    dense   smooth      PW
     Sum        6505    4339   1069               681217   370707   46193
 
     Using Slab Decomposition
 


     bravais-lattice index     =            0
     lattice parameter (alat)  =      22.9196  a.u.
     unit-cell volume          =   16700.1634 (a.u.)^3
     number of atoms/cell      =           81
     number of atomic types    =            4
     number of electrons       =       652.00
     number of Kohn-Sham states=          391
     kinetic-energy cutoff     =      30.0000  Ry
     charge density cutoff     =     180.0000  Ry
     scf convergence threshold =      1.0E-07
     mixing beta               =       0.4000
     number of iterations used =            8  plain     mixing
     Exchange-correlation= SLA  PW   PBX  PBC
                           (   1   4   3   4   0   0   0)

     GPU acceleration is ACTIVE.  1 visible GPUs per MPI rank


     celldm(1)=  22.919623  celldm(2)=   0.000000  celldm(3)=   0.000000
     celldm(4)=   0.000000  celldm(5)=   0.000000  celldm(6)=   0.000000

     crystal axes: (cart. coord. in units of alat)
               a(1) = (   1.000000   0.000000   0.000000 )  
               a(2) = (  -0.500000   0.866025   0.000000 )  
               a(3) = (   0.000000   0.000000   1.601650 )  

     reciprocal axes: (cart. coord. in units 2 pi/alat)
               b(1) = (  1.000000  0.577350 -0.000000 )  
               b(2) = (  0.000000  1.154701  0.000000 )  
               b(3) = (  0.000000 -0.000000  0.624356 )  


     PseudoPot. # 1 for C  read from file:
     /root/qe_pseudos/C.UPF
     MD5 check sum: 9b35a7431356f8229172919cb1fa74b8
     Pseudo is Norm-conserving, Zval =  4.0
     Generated by new atomic code, or converted to UPF format
     Using radial grid of 1073 points,  1 beta functions with: 
                l(1) =   0

     PseudoPot. # 2 for Cd read from file:
     /root/qe_pseudos/Cd.UPF
     MD5 check sum: f937b97fdfaed69b45145e9d47a28171
     Pseudo is Projector augmented-wave + core cor, Zval = 12.0
     Generated using &quot;atomic&quot; code by A. Dal Corso  v.6.3
     Shape of augmentation charge: PSQ
     Using radial grid of 1239 points,  6 beta functions with: 
                l(1) =   0
                l(2) =   0
                l(3) =   1
                l(4) =   1
                l(5) =   2
                l(6) =   2
     Q(r) pseudized with 0 coefficients 


     PseudoPot. # 3 for O  read from file:
     /root/qe_pseudos/O.UPF
     MD5 check sum: c7f41d994d4e90c1781f5cd713c45011
     Pseudo is Projector augmented-wave + core cor, Zval =  6.0
     Generated using "atomic" code by A. Dal Corso (espresso distribution)
     Shape of augmentation charge: BESSEL
     Using radial grid of 1095 points,  4 beta functions with: 
                l(1) =   0
                l(2) =   0
                l(3) =   1
                l(4) =   1
     Q(r) pseudized with 0 coefficients 


     PseudoPot. # 4 for Ti read from file:
     /root/qe_pseudos/Ti.UPF
     MD5 check sum: 01f69b0d8ba4438b2e03ac6ea4af1c0b
     Pseudo is Projector augmented-wave + core cor, Zval = 12.0
     Generated using &quot;atomic&quot; code by A. Dal Corso  v.6.2.2
     Shape of augmentation charge: PSQ
     Using radial grid of 1177 points,  6 beta functions with: 
                l(1) =   0
                l(2) =   0
                l(3) =   1
                l(4) =   1
                l(5) =   2
                l(6) =   2
     Q(r) pseudized with 0 coefficients 


     atomic species   valence    mass     pseudopotential
     C                 4.00    12.01100     C ( 1.00)
     Cd               12.00   112.41400     Cd( 1.00)
     O                 6.00    15.99900     O ( 1.00)
     Ti               12.00    47.86700     Ti( 1.00)

     No symmetry found



   Cartesian axes

     site n.     atom                  positions (alat units)
         1        C      tau(   1) = (   0.1249188   0.6499129   0.8017710  )
         2        C      tau(   2) = (   0.2497002   0.4329782   0.8015083  )
         3        C      tau(   3) = (   0.0013343  -0.0001803   0.7965345  )
         4        C      tau(   4) = (   0.3753360   0.2158560   0.8014691  )
         5        C      tau(   5) = (   0.7494872  -0.0014052   0.7995173  )
         6        C      tau(   6) = (   0.3737900   0.6497823   0.7994387  )
         7        C      tau(   7) = (   0.4999722  -0.0009064   0.8013069  )
         8        C      tau(   8) = (  -0.1244642   0.2177356   0.7994139  )
         9        C      tau(   9) = (  -0.1251317   0.6495064   0.8021058  )
        10        C      tau(  10) = (  -0.0000586   0.4328371   0.8019206  )
        11        C      tau(  11) = (   0.6257128   0.2157144   0.8009463  )
        12        C      tau(  12) = (   0.1241309   0.2166367   0.8012095  )
        13        C      tau(  13) = (  -0.2492027   0.4335097   0.8010627  )
        14        C      tau(  14) = (   0.2499194  -0.0008014   0.8014235  )
        15        C      tau(  15) = (  -0.3742097   0.6492817   0.7997662  )
        16        C      tau(  16) = (   0.5001909   0.4335933   0.8009429  )
        17        O      tau(  17) = (  -0.1234682   0.5060488   0.6181766  )
        18        O      tau(  18) = (  -0.1250693   0.7945856   0.9836062  )
        19        O      tau(  19) = (  -0.0007331   0.7204492   0.6189406  )
        20        O      tau(  20) = (   0.5001006   0.7194885   0.6157836  )
        21        O      tau(  21) = (   0.7463851   0.1462507   0.9860471  )
        22        O      tau(  22) = (   0.4999572   0.1445103   0.9837096  )
        23        O      tau(  23) = (   0.6233818   0.0726057   0.6188243  )
        24        O      tau(  24) = (  -0.1251383   0.3601303   0.9840684  )
        25        O      tau(  25) = (   0.1281523   0.0741461   0.6163491  )
        26        O      tau(  26) = (   0.3754952   0.3607461   0.9838949  )
        27        O      tau(  27) = (   0.4998910   0.2883867   0.6197260  )
        28        O      tau(  28) = (   0.2470808   0.7199492   0.6169612  )
        29        O      tau(  29) = (   0.3753654   0.7919149   0.9919057  )
        30        O      tau(  30) = (   0.2508844   0.5774315   0.9838792  )
        31        O      tau(  31) = (   0.3744967   0.5036101   0.6185398  )
        32        O      tau(  32) = (   0.0033997   0.1428541   0.9902424  )
        33        O      tau(  33) = (   0.5000394   0.5748048   0.9847660  )
        34        O      tau(  34) = (   0.8736566   0.0731561   0.6159089  )
        35        O      tau(  35) = (   0.7493030   0.2895528   0.6181769  )
        36        O      tau(  36) = (  -0.3757893   0.7969653   0.9899836  )
        37        O      tau(  37) = (  -0.2470495   0.7213302   0.6175998  )
        38        O      tau(  38) = (  -0.2506540   0.5774672   0.9839436  )
        39        O      tau(  39) = (   0.2505590   0.1441140   0.9837039  )
        40        O      tau(  40) = (   0.3753011   0.0720146   0.6192684  )
        41        O      tau(  41) = (   0.1236323   0.5051283   0.6185349  )
        42        O      tau(  42) = (   0.6244734   0.3606052   0.9830807  )
        43        O      tau(  43) = (   0.1253904   0.3604643   0.9838101  )
        44        O      tau(  44) = (   0.1256118   0.7945312   0.9841906  )
        45        O      tau(  45) = (   0.2499056   0.2888345   0.6194117  )
        46        O      tau(  46) = (   0.0013245   0.2913879   0.6173643  )
        47        O      tau(  47) = (   0.0001666   0.5774413   0.9835165  )
        48        O      tau(  48) = (   0.6253355   0.5039489   0.6179019  )
        49        Ti     tau(  49) = (   0.4982494   0.7222314   0.8944902  )
        50        Ti     tau(  50) = (   0.8755397   0.0704040   0.8929176  )
        51        Ti     tau(  51) = (   0.3749821   0.7945517   0.6954423  )
        52        Ti     tau(  52) = (   0.7505154   0.2869371   0.9080004  )
        53        Ti     tau(  53) = (   0.7502059   0.1444669   0.6926967  )
        54        Ti     tau(  54) = (   0.4998822   0.5784003   0.6935007  )
        55        Ti     tau(  55) = (   0.6242944   0.5063219   0.9073039  )
        56        Ti     tau(  56) = (   0.6246349   0.3613529   0.6929209  )
        57        Ti     tau(  57) = (  -0.0001596   0.1418761   0.6961375  )
        58        Ti     tau(  58) = (   0.1275730   0.7936226   0.7004576  )
        59        Ti     tau(  59) = (   0.1257438   0.0727206   0.9058561  )
        60        Ti     tau(  60) = (  -0.1247682   0.3587514   0.6979521  )
        61        Ti     tau(  61) = (   0.0003479   0.2863292   0.9084459  )
        62        Ti     tau(  62) = (  -0.2503624   0.5778067   0.6959356  )
        63        Ti     tau(  63) = (  -0.1253183   0.5048690   0.9076752  )
        64        Ti     tau(  64) = (  -0.3770250   0.7940274   0.6957541  )
        65        Ti     tau(  65) = (  -0.2508581   0.7229755   0.9079026  )
        66        Ti     tau(  66) = (   0.2494795   0.1441205   0.6922846  )
        67        Ti     tau(  67) = (   0.3745120   0.0718920   0.9059445  )
        68        Ti     tau(  68) = (   0.2530498   0.7245134   0.9089797  )
        69        Ti     tau(  69) = (   0.1228620   0.3610579   0.6936770  )
        70        Ti     tau(  70) = (  -0.0009251   0.5771396   0.6926827  )
        71        Ti     tau(  71) = (   0.1243359   0.5062889   0.9070138  )
        72        Ti     tau(  72) = (  -0.1251728   0.7929794   0.6932917  )
        73        Ti     tau(  73) = (   0.0001135   0.7217934   0.9063679  )
        74        Ti     tau(  74) = (   0.6268374   0.0736395   0.9104792  )
        75        Ti     tau(  75) = (   0.3744465   0.3616613   0.6943623  )
        76        Ti     tau(  76) = (   0.4997562   0.2888820   0.9100555  )
        77        Ti     tau(  77) = (   0.2507614   0.5794139   0.6962552  )
        78        Ti     tau(  78) = (   0.3755897   0.5060977   0.9092215  )
        79        Ti     tau(  79) = (   0.2488962   0.2897206   0.9068658  )
        80        Ti     tau(  80) = (   0.5009897   0.1436925   0.6945257  )
        81        Cd     tau(  81) = (  -0.0018226  -0.0004779   1.1289756  )

     number of k points=     1  Methfessel-Paxton smearing, width (Ry)=  0.0100
                       cart. coord. in units 2pi/alat
        k(    1) = (   0.0000000   0.0000000   0.0000000), wk =   2.0000000

     Dense  grid:   681217 G-vectors     FFT dimensions: ( 100, 100, 160)

     Smooth grid:   370707 G-vectors     FFT dimensions: (  80,  80, 135)

     Estimated max dynamical RAM per process >       4.16 GB

     Check: negative core charge=   -0.000044

     Initial potential from superposition of free atoms

     starting charge     643.9481, renormalised to     652.0000

     negative rho (up, down):  5.947E-02 0.000E+00
     Starting wfcs are  585 randomized atomic wfcs
     Checking if some PAW data can be deallocated... 

     total cpu time spent up to now is       27.1 secs

     Self-consistent Calculation

     iteration #  1     ecut=    30.00 Ry     beta= 0.40
     Davidson diagonalization with overlap
     ethr =  1.00E-02,  avg # of iterations =  3.0

     negative rho (up, down):  5.843E-02 0.000E+00

     total cpu time spent up to now is       47.4 secs

     total energy              =   -7762.96337068 Ry
     estimated scf accuracy    <      55.03806130 Ry

     iteration #  2     ecut=    30.00 Ry     beta= 0.40
     Davidson diagonalization with overlap
     ethr =  8.44E-03,  avg # of iterations =  5.0

     negative rho (up, down):  7.237E-02 0.000E+00

     total cpu time spent up to now is       67.9 secs

     total energy              =   -7771.23804787 Ry
     estimated scf accuracy    <      29.88136061 Ry

     iteration #  3     ecut=    30.00 Ry     beta= 0.40
     Davidson diagonalization with overlap
     ethr =  4.58E-03,  avg # of iterations =  6.0

     negative rho (up, down):  1.220E-01 0.000E+00

     total cpu time spent up to now is       88.3 secs

     total energy              =   -7767.61086107 Ry
     estimated scf accuracy    <     203.05562779 Ry

     iteration #  4     ecut=    30.00 Ry     beta= 0.40
     Davidson diagonalization with overlap
     ethr =  4.58E-03,  avg # of iterations =  2.0

     negative rho (up, down):  1.019E-01 0.000E+00

     total cpu time spent up to now is      108.2 secs

     total energy              =   -7778.77608929 Ry
     estimated scf accuracy    <       2.98646030 Ry

     iteration #  5     ecut=    30.00 Ry     beta= 0.40
     Davidson diagonalization with overlap
     ethr =  4.58E-04,  avg # of iterations =  8.0

     negative rho (up, down):  1.072E-01 0.000E+00

     total cpu time spent up to now is      128.5 secs

     total energy              =   -7778.94611443 Ry
     estimated scf accuracy    <       1.32975208 Ry

     iteration #  6     ecut=    30.00 Ry     beta= 0.40
     Davidson diagonalization with overlap
     ethr =  2.04E-04,  avg # of iterations =  7.0

     negative rho (up, down):  1.137E-01 0.000E+00

     total cpu time spent up to now is      148.6 secs

     total energy              =   -7778.85997679 Ry
     estimated scf accuracy    <       0.88763656 Ry

     iteration #  7     ecut=    30.00 Ry     beta= 0.40
     Davidson diagonalization with overlap
     ethr =  1.36E-04,  avg # of iterations = 16.0

     negative rho (up, down):  1.327E-01 0.000E+00

     total cpu time spent up to now is      170.1 secs

     total energy              =   -7778.95008875 Ry
     estimated scf accuracy    <       0.77409760 Ry

     iteration #  8     ecut=    30.00 Ry     beta= 0.40
     Davidson diagonalization with overlap
     ethr =  1.19E-04,  avg # of iterations =  3.0

     negative rho (up, down):  1.629E-01 0.000E+00

     total cpu time spent up to now is      189.9 secs

     total energy              =   -7778.97777775 Ry
     estimated scf accuracy    <       0.27514436 Ry

     iteration #  9     ecut=    30.00 Ry     beta= 0.40
     Davidson diagonalization with overlap
     ethr =  4.22E-05,  avg # of iterations =  2.0

     negative rho (up, down):  2.005E-01 0.000E+00

     total cpu time spent up to now is      210.0 secs

     total energy              =   -7778.98758812 Ry
     estimated scf accuracy    <       0.08217025 Ry

     iteration # 10     ecut=    30.00 Ry     beta= 0.40
     Davidson diagonalization with overlap
     c_bands:  1 eigenvalues not converged
     ethr =  1.26E-05,  avg # of iterations = 20.0

     negative rho (up, down):  2.518E-01 0.000E+00

     total cpu time spent up to now is      231.7 secs

     total energy              =   -7779.00437246 Ry
     estimated scf accuracy    <       0.06637662 Ry

     iteration # 11     ecut=    30.00 Ry     beta= 0.40
     Davidson diagonalization with overlap
     ethr =  1.02E-05,  avg # of iterations =  2.0

     negative rho (up, down):  3.043E-01 0.000E+00

     total cpu time spent up to now is      251.4 secs

     total energy              =   -7779.00904347 Ry
     estimated scf accuracy    <       0.02120734 Ry

     iteration # 12     ecut=    30.00 Ry     beta= 0.40
     Davidson diagonalization with overlap
     c_bands:  2 eigenvalues not converged
     ethr =  3.25E-06,  avg # of iterations = 20.0

     negative rho (up, down):  3.662E-01 0.000E+00

     total cpu time spent up to now is      272.6 secs

     total energy              =   -7779.01389889 Ry
     estimated scf accuracy    <       0.00932679 Ry

     iteration # 13     ecut=    30.00 Ry     beta= 0.40
     Davidson diagonalization with overlap
     ethr =  1.43E-06,  avg # of iterations =  2.0

     negative rho (up, down):  4.304E-01 0.000E+00

     total cpu time spent up to now is      292.4 secs

     total energy              =   -7779.01806054 Ry
     estimated scf accuracy    <       0.00538332 Ry

     iteration # 14     ecut=    30.00 Ry     beta= 0.40
     Davidson diagonalization with overlap
     ethr =  8.26E-07,  avg # of iterations =  2.0

     negative rho (up, down):  5.163E-01 0.000E+00

     total cpu time spent up to now is      312.4 secs

     total energy              =   -7779.01746845 Ry
     estimated scf accuracy    <       0.00391927 Ry

     iteration # 15     ecut=    30.00 Ry     beta= 0.40
     Davidson diagonalization with overlap
     ethr =  6.01E-07,  avg # of iterations =  3.0

     negative rho (up, down):  6.616E-01 0.000E+00

     total cpu time spent up to now is      332.4 secs

     total energy              =   -7779.00026911 Ry
     estimated scf accuracy    <       0.00524510 Ry

     iteration # 16     ecut=    30.00 Ry     beta= 0.40
     Davidson diagonalization with overlap
     ethr =  6.01E-07,  avg # of iterations =  5.0

     negative rho (up, down):  7.860E-01 0.000E+00

     total cpu time spent up to now is      352.7 secs

     total energy              =   -7778.98282849 Ry
     estimated scf accuracy    <       0.02367904 Ry

     iteration # 17     ecut=    30.00 Ry     beta= 0.40
     Davidson diagonalization with overlap
     ethr =  6.01E-07,  avg # of iterations =  3.0

     negative rho (up, down):  1.038E+00 0.000E+00

     total cpu time spent up to now is      372.9 secs

     total energy              =   -7778.92041149 Ry
     estimated scf accuracy    <       0.01924844 Ry

     iteration # 18     ecut=    30.00 Ry     beta= 0.40
     Davidson diagonalization with overlap
     ethr =  6.01E-07,  avg # of iterations =  3.0

     negative rho (up, down):  1.101E+00 0.000E+00

     total cpu time spent up to now is      392.9 secs

     total energy              =   -7778.90862556 Ry
     estimated scf accuracy    <       0.03805840 Ry

     iteration # 19     ecut=    30.00 Ry     beta= 0.40
     Davidson diagonalization with overlap
     ethr =  6.01E-07,  avg # of iterations =  2.0

     negative rho (up, down):  1.137E+00 0.000E+00

     total cpu time spent up to now is      412.9 secs

     total energy              =   -7778.90424973 Ry
     estimated scf accuracy    <       0.04212160 Ry

     iteration # 20     ecut=    30.00 Ry     beta= 0.40
     Davidson diagonalization with overlap
     ethr =  6.01E-07,  avg # of iterations =  2.0

     negative rho (up, down):  1.173E+00 0.000E+00

     total cpu time spent up to now is      432.8 secs

     total energy              =   -7778.89905029 Ry
     estimated scf accuracy    <       0.04366020 Ry

     iteration # 21     ecut=    30.00 Ry     beta= 0.40
     Davidson diagonalization with overlap
     ethr =  6.01E-07,  avg # of iterations =  2.0

     negative rho (up, down):  1.282E+00 0.000E+00

     total cpu time spent up to now is      452.6 secs

     total energy              =   -7778.86851451 Ry
     estimated scf accuracy    <       0.05065984 Ry

     iteration # 22     ecut=    30.00 Ry     beta= 0.40
     Davidson diagonalization with overlap
     ethr =  6.01E-07,  avg # of iterations =  2.0

     negative rho (up, down):  1.080E+00 0.000E+00

     total cpu time spent up to now is      472.6 secs

     total energy              =   -7778.94130963 Ry
     estimated scf accuracy    <       0.06082632 Ry

     iteration # 23     ecut=    30.00 Ry     beta= 0.40
     Davidson diagonalization with overlap
     ethr =  6.01E-07,  avg # of iterations =  2.0

     negative rho (up, down):  8.805E-01 0.000E+00

     total cpu time spent up to now is      492.6 secs

     total energy              =   -7779.01465196 Ry
     estimated scf accuracy    <       0.04229366 Ry

     iteration # 24     ecut=    30.00 Ry     beta= 0.40
     Davidson diagonalization with overlap
     ethr =  6.01E-07,  avg # of iterations =  5.0

     negative rho (up, down):  9.724E-01 0.000E+00

     total cpu time spent up to now is      513.0 secs

     total energy              =   -7779.00170922 Ry
     estimated scf accuracy    <       0.03018590 Ry

     iteration # 25     ecut=    30.00 Ry     beta= 0.40
     Davidson diagonalization with overlap
     ethr =  6.01E-07,  avg # of iterations =  2.0

     negative rho (up, down):  9.993E-01 0.000E+00

     total cpu time spent up to now is      533.0 secs

     total energy              =   -7779.00490107 Ry
     estimated scf accuracy    <       0.02584923 Ry

     iteration # 26     ecut=    30.00 Ry     beta= 0.40
     Davidson diagonalization with overlap
     ethr =  6.01E-07,  avg # of iterations =  2.0

     negative rho (up, down):  1.068E+00 0.000E+00

     total cpu time spent up to now is      552.9 secs

     total energy              =   -7778.99356211 Ry
     estimated scf accuracy    <       0.03119754 Ry

     iteration # 27     ecut=    30.00 Ry     beta= 0.40
     Davidson diagonalization with overlap
     ethr =  6.01E-07,  avg # of iterations =  2.0

     negative rho (up, down):  1.004E+00 0.000E+00

     total cpu time spent up to now is      572.8 secs

     total energy              =   -7779.02295510 Ry
     estimated scf accuracy    <       0.02828304 Ry

     iteration # 28     ecut=    30.00 Ry     beta= 0.40
     Davidson diagonalization with overlap
     ethr =  6.01E-07,  avg # of iterations =  2.0

     negative rho (up, down):  9.620E-01 0.000E+00

     total cpu time spent up to now is      592.8 secs

     total energy              =   -7779.04772180 Ry
     estimated scf accuracy    <       0.01360115 Ry

     iteration # 29     ecut=    30.00 Ry     beta= 0.40
     Davidson diagonalization with overlap
     ethr =  6.01E-07,  avg # of iterations = 13.0

     negative rho (up, down):  9.862E-01 0.000E+00

     total cpu time spent up to now is      614.2 secs

     total energy              =   -7779.05063860 Ry
     estimated scf accuracy    <       0.01579554 Ry

     iteration # 30     ecut=    30.00 Ry     beta= 0.40
     Davidson diagonalization with overlap
     ethr =  6.01E-07,  avg # of iterations = 11.0

     negative rho (up, down):  1.016E+00 0.000E+00

     total cpu time spent up to now is      634.9 secs

     total energy              =   -7779.05365279 Ry
     estimated scf accuracy    <       0.00611375 Ry

     iteration # 31     ecut=    30.00 Ry     beta= 0.40
     Davidson diagonalization with overlap
     ethr =  6.01E-07,  avg # of iterations =  6.0

     negative rho (up, down):  1.042E+00 0.000E+00

     total cpu time spent up to now is      655.2 secs

     total energy              =   -7779.05567570 Ry
     estimated scf accuracy    <       0.00506556 Ry

     iteration # 32     ecut=    30.00 Ry     beta= 0.40
     Davidson diagonalization with overlap
     ethr =  6.01E-07,  avg # of iterations =  2.0

     negative rho (up, down):  1.074E+00 0.000E+00

     total cpu time spent up to now is      675.1 secs

     total energy              =   -7779.05736278 Ry
     estimated scf accuracy    <       0.00225069 Ry

     iteration # 33     ecut=    30.00 Ry     beta= 0.40
     Davidson diagonalization with overlap
     ethr =  3.45E-07,  avg # of iterations =  2.0

     negative rho (up, down):  1.109E+00 0.000E+00

     total cpu time spent up to now is      694.9 secs

     total energy              =   -7779.05577945 Ry
     estimated scf accuracy    <       0.00101909 Ry

     iteration # 34     ecut=    30.00 Ry     beta= 0.40
     Davidson diagonalization with overlap
     ethr =  1.56E-07,  avg # of iterations =  6.0

     negative rho (up, down):  1.127E+00 0.000E+00

     total cpu time spent up to now is      715.1 secs

     total energy              =   -7779.05805716 Ry
     estimated scf accuracy    <       0.00048931 Ry

     iteration # 35     ecut=    30.00 Ry     beta= 0.40
     Davidson diagonalization with overlap
     ethr =  7.50E-08,  avg # of iterations =  5.0

     negative rho (up, down):  1.147E+00 0.000E+00

     total cpu time spent up to now is      735.2 secs

     total energy              =   -7779.05872691 Ry
     estimated scf accuracy    <       0.00011562 Ry

     iteration # 36     ecut=    30.00 Ry     beta= 0.40
     Davidson diagonalization with overlap
     ethr =  1.77E-08,  avg # of iterations =  6.0

     negative rho (up, down):  1.165E+00 0.000E+00

     total cpu time spent up to now is      755.7 secs

     total energy              =   -7779.05946460 Ry
     estimated scf accuracy    <       0.00012910 Ry

     iteration # 37     ecut=    30.00 Ry     beta= 0.40
     Davidson diagonalization with overlap
     ethr =  1.77E-08,  avg # of iterations =  5.0

     negative rho (up, down):  1.185E+00 0.000E+00

     total cpu time spent up to now is      776.0 secs

     total energy              =   -7779.05905627 Ry
     estimated scf accuracy    <       0.00021752 Ry

     iteration # 38     ecut=    30.00 Ry     beta= 0.40
     Davidson diagonalization with overlap
     ethr =  1.77E-08,  avg # of iterations =  2.0

     negative rho (up, down):  1.198E+00 0.000E+00

     total cpu time spent up to now is      796.0 secs

     total energy              =   -7779.05995583 Ry
     estimated scf accuracy    <       0.00001989 Ry

     iteration # 39     ecut=    30.00 Ry     beta= 0.40
     Davidson diagonalization with overlap
     ethr =  3.05E-09,  avg # of iterations =  5.0

     negative rho (up, down):  1.212E+00 0.000E+00

     total cpu time spent up to now is      816.6 secs

     total energy              =   -7779.06013353 Ry
     estimated scf accuracy    <       0.00003180 Ry

     iteration # 40     ecut=    30.00 Ry     beta= 0.40
     Davidson diagonalization with overlap
     ethr =  3.05E-09,  avg # of iterations =  3.0

     negative rho (up, down):  1.223E+00 0.000E+00

     total cpu time spent up to now is      836.9 secs

     total energy              =   -7779.06046347 Ry
     estimated scf accuracy    <       0.00001646 Ry

     iteration # 41     ecut=    30.00 Ry     beta= 0.40
     Davidson diagonalization with overlap
     ethr =  2.52E-09,  avg # of iterations =  3.0

     negative rho (up, down):  1.234E+00 0.000E+00

     total cpu time spent up to now is      857.2 secs

     total energy              =   -7779.06069962 Ry
     estimated scf accuracy    <       0.00002325 Ry

     iteration # 42     ecut=    30.00 Ry     beta= 0.40
     Davidson diagonalization with overlap
     ethr =  2.52E-09,  avg # of iterations =  4.0

     negative rho (up, down):  1.243E+00 0.000E+00

     total cpu time spent up to now is      877.8 secs

     total energy              =   -7779.06103239 Ry
     estimated scf accuracy    <       0.00001743 Ry

     iteration # 43     ecut=    30.00 Ry     beta= 0.40
     Davidson diagonalization with overlap
     ethr =  2.52E-09,  avg # of iterations =  4.0

     negative rho (up, down):  1.252E+00 0.000E+00

     total cpu time spent up to now is      898.3 secs

     total energy              =   -7779.06115296 Ry
     estimated scf accuracy    <       0.00007517 Ry

     iteration # 44     ecut=    30.00 Ry     beta= 0.40
     Davidson diagonalization with overlap
     ethr =  2.52E-09,  avg # of iterations =  3.0

     negative rho (up, down):  1.259E+00 0.000E+00

     total cpu time spent up to now is      918.6 secs

     total energy              =   -7779.06127009 Ry
     estimated scf accuracy    <       0.00008689 Ry

     iteration # 45     ecut=    30.00 Ry     beta= 0.40
     Davidson diagonalization with overlap
     ethr =  2.52E-09,  avg # of iterations =  3.0

     negative rho (up, down):  1.266E+00 0.000E+00

     total cpu time spent up to now is      938.9 secs

     total energy              =   -7779.06119238 Ry
     estimated scf accuracy    <       0.00007183 Ry

     iteration # 46     ecut=    30.00 Ry     beta= 0.40
     Davidson diagonalization with overlap
     ethr =  2.52E-09,  avg # of iterations =  3.0

     negative rho (up, down):  1.274E+00 0.000E+00

     total cpu time spent up to now is      959.1 secs

     total energy              =   -7779.06057560 Ry
     estimated scf accuracy    <       0.00014463 Ry

     iteration # 47     ecut=    30.00 Ry     beta= 0.40
     Davidson diagonalization with overlap
     ethr =  2.52E-09,  avg # of iterations =  4.0

     negative rho (up, down):  1.281E+00 0.000E+00

     total cpu time spent up to now is      979.6 secs

     total energy              =   -7779.06007344 Ry
     estimated scf accuracy    <       0.00035437 Ry

     iteration # 48     ecut=    30.00 Ry     beta= 0.40
     Davidson diagonalization with overlap
     ethr =  2.52E-09,  avg # of iterations =  3.0

     negative rho (up, down):  1.285E+00 0.000E+00

     total cpu time spent up to now is      999.7 secs

     total energy              =   -7779.06021763 Ry
     estimated scf accuracy    <       0.00044832 Ry

     iteration # 49     ecut=    30.00 Ry     beta= 0.40
     Davidson diagonalization with overlap
     ethr =  2.52E-09,  avg # of iterations =  3.0

     negative rho (up, down):  1.289E+00 0.000E+00

     total cpu time spent up to now is     1019.9 secs

     total energy              =   -7779.06025574 Ry
     estimated scf accuracy    <       0.00041559 Ry

     iteration # 50     ecut=    30.00 Ry     beta= 0.40
     Davidson diagonalization with overlap
     ethr =  2.52E-09,  avg # of iterations =  3.0

     negative rho (up, down):  1.293E+00 0.000E+00

     total cpu time spent up to now is     1040.0 secs

     total energy              =   -7779.06031607 Ry
     estimated scf accuracy    <       0.00041824 Ry

     iteration # 51     ecut=    30.00 Ry     beta= 0.40
     Davidson diagonalization with overlap
     ethr =  2.52E-09,  avg # of iterations =  3.0

     negative rho (up, down):  1.295E+00 0.000E+00

     total cpu time spent up to now is     1060.0 secs

     total energy              =   -7779.06072148 Ry
     estimated scf accuracy    <       0.00039418 Ry

     iteration # 52     ecut=    30.00 Ry     beta= 0.40
     Davidson diagonalization with overlap
     ethr =  2.52E-09,  avg # of iterations =  3.0

     negative rho (up, down):  1.297E+00 0.000E+00

     total cpu time spent up to now is     1080.1 secs

     total energy              =   -7779.06110419 Ry
     estimated scf accuracy    <       0.00032770 Ry

     iteration # 53     ecut=    30.00 Ry     beta= 0.40
     Davidson diagonalization with overlap
     ethr =  2.52E-09,  avg # of iterations =  3.0

     negative rho (up, down):  1.299E+00 0.000E+00

     total cpu time spent up to now is     1100.2 secs

     total energy              =   -7779.06166437 Ry
     estimated scf accuracy    <       0.00024762 Ry

     iteration # 54     ecut=    30.00 Ry     beta= 0.40
     Davidson diagonalization with overlap
     ethr =  2.52E-09,  avg # of iterations =  3.0

     negative rho (up, down):  1.302E+00 0.000E+00

     total cpu time spent up to now is     1120.4 secs

     total energy              =   -7779.06137455 Ry
     estimated scf accuracy    <       0.00012911 Ry

     iteration # 55     ecut=    30.00 Ry     beta= 0.40
     Davidson diagonalization with overlap
     ethr =  2.52E-09,  avg # of iterations =  3.0

     negative rho (up, down):  1.304E+00 0.000E+00

     total cpu time spent up to now is     1140.5 secs

     total energy              =   -7779.06193534 Ry
     estimated scf accuracy    <       0.00020096 Ry

     iteration # 56     ecut=    30.00 Ry     beta= 0.40
     Davidson diagonalization with overlap
     ethr =  2.52E-09,  avg # of iterations =  5.0

     negative rho (up, down):  1.306E+00 0.000E+00

     total cpu time spent up to now is     1160.9 secs

     total energy              =   -7779.06205423 Ry
     estimated scf accuracy    <       0.00009899 Ry

     iteration # 57     ecut=    30.00 Ry     beta= 0.40
     Davidson diagonalization with overlap
     ethr =  2.52E-09,  avg # of iterations =  3.0

     negative rho (up, down):  1.308E+00 0.000E+00

     total cpu time spent up to now is     1181.0 secs

     total energy              =   -7779.06216266 Ry
     estimated scf accuracy    <       0.00005893 Ry

     iteration # 58     ecut=    30.00 Ry     beta= 0.40
     Davidson diagonalization with overlap
     ethr =  2.52E-09,  avg # of iterations =  3.0

     negative rho (up, down):  1.310E+00 0.000E+00

     total cpu time spent up to now is     1201.0 secs

     total energy              =   -7779.06218968 Ry
     estimated scf accuracy    <       0.00003619 Ry

     iteration # 59     ecut=    30.00 Ry     beta= 0.40
     Davidson diagonalization with overlap
     ethr =  2.52E-09,  avg # of iterations =  3.0

     negative rho (up, down):  1.312E+00 0.000E+00

     total cpu time spent up to now is     1221.0 secs

     total energy              =   -7779.06216943 Ry
     estimated scf accuracy    <       0.00004908 Ry

     iteration # 60     ecut=    30.00 Ry     beta= 0.40
     Davidson diagonalization with overlap
     ethr =  2.52E-09,  avg # of iterations =  3.0

     negative rho (up, down):  1.313E+00 0.000E+00

     total cpu time spent up to now is     1241.1 secs

     total energy              =   -7779.06208866 Ry
     estimated scf accuracy    <       0.00007251 Ry

     iteration # 61     ecut=    30.00 Ry     beta= 0.40
     Davidson diagonalization with overlap
     ethr =  2.52E-09,  avg # of iterations =  3.0

     negative rho (up, down):  1.315E+00 0.000E+00

     total cpu time spent up to now is     1261.0 secs

     total energy              =   -7779.06206471 Ry
     estimated scf accuracy    <       0.00010520 Ry

     iteration # 62     ecut=    30.00 Ry     beta= 0.40
     Davidson diagonalization with overlap
     ethr =  2.52E-09,  avg # of iterations =  3.0

     negative rho (up, down):  1.317E+00 0.000E+00

     total cpu time spent up to now is     1281.1 secs

     total energy              =   -7779.06198171 Ry
     estimated scf accuracy    <       0.00012122 Ry

     iteration # 63     ecut=    30.00 Ry     beta= 0.40
     Davidson diagonalization with overlap
     ethr =  2.52E-09,  avg # of iterations =  3.0

     negative rho (up, down):  1.319E+00 0.000E+00

     total cpu time spent up to now is     1301.1 secs

     total energy              =   -7779.06186401 Ry
     estimated scf accuracy    <       0.00014799 Ry

     iteration # 64     ecut=    30.00 Ry     beta= 0.40
     Davidson diagonalization with overlap
     ethr =  2.52E-09,  avg # of iterations =  3.0

     negative rho (up, down):  1.320E+00 0.000E+00

     total cpu time spent up to now is     1321.2 secs

     total energy              =   -7779.06156386 Ry
     estimated scf accuracy    <       0.00017824 Ry

     iteration # 65     ecut=    30.00 Ry     beta= 0.40
     Davidson diagonalization with overlap
     ethr =  2.52E-09,  avg # of iterations =  3.0

     negative rho (up, down):  1.322E+00 0.000E+00

     total cpu time spent up to now is     1341.2 secs

     total energy              =   -7779.06125002 Ry
     estimated scf accuracy    <       0.00023806 Ry

     iteration # 66     ecut=    30.00 Ry     beta= 0.40
     Davidson diagonalization with overlap
     ethr =  2.52E-09,  avg # of iterations =  3.0

     negative rho (up, down):  1.324E+00 0.000E+00

     total cpu time spent up to now is     1361.3 secs

     total energy              =   -7779.06091530 Ry
     estimated scf accuracy    <       0.00029676 Ry

     iteration # 67     ecut=    30.00 Ry     beta= 0.40
     Davidson diagonalization with overlap
     ethr =  2.52E-09,  avg # of iterations =  3.0

     negative rho (up, down):  1.326E+00 0.000E+00

     total cpu time spent up to now is     1381.3 secs

     total energy              =   -7779.06057844 Ry
     estimated scf accuracy    <       0.00035307 Ry

     iteration # 68     ecut=    30.00 Ry     beta= 0.40
     Davidson diagonalization with overlap
     ethr =  2.52E-09,  avg # of iterations =  3.0

     negative rho (up, down):  1.327E+00 0.000E+00

     total cpu time spent up to now is     1401.4 secs

     total energy              =   -7779.06016985 Ry
     estimated scf accuracy    <       0.00040595 Ry

     iteration # 69     ecut=    30.00 Ry     beta= 0.40
     Davidson diagonalization with overlap
     ethr =  2.52E-09,  avg # of iterations =  3.0

     negative rho (up, down):  1.329E+00 0.000E+00

     total cpu time spent up to now is     1421.6 secs

     total energy              =   -7779.05989222 Ry
     estimated scf accuracy    <       0.00046632 Ry

     iteration # 70     ecut=    30.00 Ry     beta= 0.40
     Davidson diagonalization with overlap
     ethr =  2.52E-09,  avg # of iterations =  3.0

     negative rho (up, down):  1.331E+00 0.000E+00

     total cpu time spent up to now is     1441.5 secs

     total energy              =   -7779.05939508 Ry
     estimated scf accuracy    <       0.00051123 Ry

     iteration # 71     ecut=    30.00 Ry     beta= 0.40
     Davidson diagonalization with overlap
     ethr =  2.52E-09,  avg # of iterations =  3.0

     negative rho (up, down):  1.333E+00 0.000E+00

     total cpu time spent up to now is     1461.6 secs

     total energy              =   -7779.05897924 Ry
     estimated scf accuracy    <       0.00058135 Ry

     iteration # 72     ecut=    30.00 Ry     beta= 0.40
     Davidson diagonalization with overlap
     ethr =  2.52E-09,  avg # of iterations =  3.0

     negative rho (up, down):  1.334E+00 0.000E+00

     total cpu time spent up to now is     1481.7 secs

     total energy              =   -7779.05858720 Ry
     estimated scf accuracy    <       0.00063966 Ry

     iteration # 73     ecut=    30.00 Ry     beta= 0.40
     Davidson diagonalization with overlap
     ethr =  2.52E-09,  avg # of iterations =  3.0

     negative rho (up, down):  1.335E+00 0.000E+00

     total cpu time spent up to now is     1501.7 secs

     total energy              =   -7779.05808410 Ry
     estimated scf accuracy    <       0.00070097 Ry

     iteration # 74     ecut=    30.00 Ry     beta= 0.40
     Davidson diagonalization with overlap
     ethr =  2.52E-09,  avg # of iterations =  2.0

     negative rho (up, down):  1.336E+00 0.000E+00

     total cpu time spent up to now is     1521.7 secs

     total energy              =   -7779.05762709 Ry
     estimated scf accuracy    <       0.00075998 Ry

     iteration # 75     ecut=    30.00 Ry     beta= 0.40
     Davidson diagonalization with overlap
     ethr =  2.52E-09,  avg # of iterations =  2.0

     negative rho (up, down):  1.340E+00 0.000E+00

     total cpu time spent up to now is     1541.6 secs

     total energy              =   -7779.05644698 Ry
     estimated scf accuracy    <       0.00081911 Ry

     iteration # 76     ecut=    30.00 Ry     beta= 0.40
     Davidson diagonalization with overlap
     ethr =  2.52E-09,  avg # of iterations =  6.0

     negative rho (up, down):  1.339E+00 0.000E+00

     total cpu time spent up to now is     1562.3 secs

     total energy              =   -7779.05680772 Ry
     estimated scf accuracy    <       0.00110084 Ry

     iteration # 77     ecut=    30.00 Ry     beta= 0.40
     Davidson diagonalization with overlap
     ethr =  2.52E-09,  avg # of iterations =  6.0

     negative rho (up, down):  1.340E+00 0.000E+00

     total cpu time spent up to now is     1583.2 secs

     total energy              =   -7779.05622210 Ry
     estimated scf accuracy    <       0.00102329 Ry

     iteration # 78     ecut=    30.00 Ry     beta= 0.40
     Davidson diagonalization with overlap
     ethr =  2.52E-09,  avg # of iterations =  6.0

     negative rho (up, down):  1.341E+00 0.000E+00

     total cpu time spent up to now is     1604.0 secs

     total energy              =   -7779.05598050 Ry
     estimated scf accuracy    <       0.00104873 Ry

     iteration # 79     ecut=    30.00 Ry     beta= 0.40
     Davidson diagonalization with overlap
     ethr =  2.52E-09,  avg # of iterations =  6.0

     negative rho (up, down):  1.343E+00 0.000E+00

     total cpu time spent up to now is     1624.8 secs

     total energy              =   -7779.05524550 Ry
     estimated scf accuracy    <       0.00108059 Ry

     iteration # 80     ecut=    30.00 Ry     beta= 0.40
     Davidson diagonalization with overlap
     ethr =  2.52E-09,  avg # of iterations =  6.0

     negative rho (up, down):  1.343E+00 0.000E+00

     total cpu time spent up to now is     1645.4 secs

     total energy              =   -7779.05481722 Ry
     estimated scf accuracy    <       0.00115052 Ry

     iteration # 81     ecut=    30.00 Ry     beta= 0.40
     Davidson diagonalization with overlap
     ethr =  2.52E-09,  avg # of iterations =  6.0

     negative rho (up, down):  1.345E+00 0.000E+00

     total cpu time spent up to now is     1666.0 secs

     total energy              =   -7779.05418332 Ry
     estimated scf accuracy    <       0.00125172 Ry

     iteration # 82     ecut=    30.00 Ry     beta= 0.40
     Davidson diagonalization with overlap
     ethr =  2.52E-09,  avg # of iterations =  6.0

     negative rho (up, down):  1.346E+00 0.000E+00

     total cpu time spent up to now is     1686.5 secs

     total energy              =   -7779.05353214 Ry
     estimated scf accuracy    <       0.00132994 Ry

     iteration # 83     ecut=    30.00 Ry     beta= 0.40
     Davidson diagonalization with overlap
     ethr =  2.52E-09,  avg # of iterations =  5.0

     negative rho (up, down):  1.335E+00 0.000E+00

     total cpu time spent up to now is     1706.7 secs

     total energy              =   -7779.05689305 Ry
     estimated scf accuracy    <       0.00137124 Ry

     iteration # 84     ecut=    30.00 Ry     beta= 0.40
     Davidson diagonalization with overlap
     ethr =  2.52E-09,  avg # of iterations =  8.0

     negative rho (up, down):  1.325E+00 0.000E+00

     total cpu time spent up to now is     1727.8 secs

     total energy              =   -7779.06053668 Ry
     estimated scf accuracy    <       0.00125779 Ry

     iteration # 85     ecut=    30.00 Ry     beta= 0.40
     Davidson diagonalization with overlap
     ethr =  2.52E-09,  avg # of iterations =  7.0

     negative rho (up, down):  1.331E+00 0.000E+00

     total cpu time spent up to now is     1749.3 secs

     total energy              =   -7779.05920040 Ry
     estimated scf accuracy    <       0.00113276 Ry

     iteration # 86     ecut=    30.00 Ry     beta= 0.40
     Davidson diagonalization with overlap
     ethr =  2.52E-09,  avg # of iterations = 11.0

     negative rho (up, down):  1.321E+00 0.000E+00

     total cpu time spent up to now is     1771.2 secs

     total energy              =   -7779.06165161 Ry
     estimated scf accuracy    <       0.00122325 Ry

     iteration # 87     ecut=    30.00 Ry     beta= 0.40
     Davidson diagonalization with overlap
     ethr =  2.52E-09,  avg # of iterations =  6.0

     negative rho (up, down):  1.321E+00 0.000E+00

     total cpu time spent up to now is     1792.7 secs

     total energy              =   -7779.06308137 Ry
     estimated scf accuracy    <       0.00052196 Ry

     iteration # 88     ecut=    30.00 Ry     beta= 0.40
     Davidson diagonalization with overlap
     ethr =  2.52E-09,  avg # of iterations =  9.0

     negative rho (up, down):  1.323E+00 0.000E+00

     total cpu time spent up to now is     1814.5 secs

     total energy              =   -7779.06334332 Ry
     estimated scf accuracy    <       0.00026463 Ry

     iteration # 89     ecut=    30.00 Ry     beta= 0.40
     Davidson diagonalization with overlap
     ethr =  2.52E-09,  avg # of iterations =  7.0

     negative rho (up, down):  1.325E+00 0.000E+00

     total cpu time spent up to now is     1835.7 secs

     total energy              =   -7779.06340206 Ry
     estimated scf accuracy    <       0.00014123 Ry

     iteration # 90     ecut=    30.00 Ry     beta= 0.40
     Davidson diagonalization with overlap
     ethr =  2.52E-09,  avg # of iterations =  6.0

     negative rho (up, down):  1.326E+00 0.000E+00

     total cpu time spent up to now is     1856.4 secs

     total energy              =   -7779.06341937 Ry
     estimated scf accuracy    <       0.00001598 Ry

     iteration # 91     ecut=    30.00 Ry     beta= 0.40
     Davidson diagonalization with overlap
     ethr =  2.45E-09,  avg # of iterations =  2.0

     negative rho (up, down):  1.327E+00 0.000E+00

     total cpu time spent up to now is     1876.2 secs

     total energy              =   -7779.06342761 Ry
     estimated scf accuracy    <       0.00000938 Ry

     iteration # 92     ecut=    30.00 Ry     beta= 0.40
     Davidson diagonalization with overlap
     ethr =  1.44E-09,  avg # of iterations =  3.0

     negative rho (up, down):  1.328E+00 0.000E+00

     total cpu time spent up to now is     1896.3 secs

     total energy              =   -7779.06342973 Ry
     estimated scf accuracy    <       0.00000965 Ry

     iteration # 93     ecut=    30.00 Ry     beta= 0.40
     Davidson diagonalization with overlap
     ethr =  1.44E-09,  avg # of iterations =  3.0

     negative rho (up, down):  1.329E+00 0.000E+00

     total cpu time spent up to now is     1916.4 secs

     total energy              =   -7779.06343713 Ry
     estimated scf accuracy    <       0.00002233 Ry

     iteration # 94     ecut=    30.00 Ry     beta= 0.40
     Davidson diagonalization with overlap
     ethr =  1.44E-09,  avg # of iterations =  3.0

     negative rho (up, down):  1.330E+00 0.000E+00

     total cpu time spent up to now is     1936.6 secs

     total energy              =   -7779.06342708 Ry
     estimated scf accuracy    <       0.00000510 Ry

     iteration # 95     ecut=    30.00 Ry     beta= 0.40
     Davidson diagonalization with overlap
     ethr =  7.82E-10,  avg # of iterations =  3.0

     negative rho (up, down):  1.330E+00 0.000E+00

     total cpu time spent up to now is     1956.9 secs

     total energy              =   -7779.06339275 Ry
     estimated scf accuracy    <       0.00001438 Ry

     iteration # 96     ecut=    30.00 Ry     beta= 0.40
     Davidson diagonalization with overlap
     ethr =  7.82E-10,  avg # of iterations =  3.0

     negative rho (up, down):  1.331E+00 0.000E+00

     total cpu time spent up to now is     1977.1 secs

     total energy              =   -7779.06338169 Ry
     estimated scf accuracy    <       0.00002875 Ry

     iteration # 97     ecut=    30.00 Ry     beta= 0.40
     Davidson diagonalization with overlap
     ethr =  7.82E-10,  avg # of iterations =  3.0

     negative rho (up, down):  1.331E+00 0.000E+00

     total cpu time spent up to now is     1997.1 secs

     total energy              =   -7779.06339592 Ry
     estimated scf accuracy    <       0.00003283 Ry

     iteration # 98     ecut=    30.00 Ry     beta= 0.40
     Davidson diagonalization with overlap
     ethr =  7.82E-10,  avg # of iterations =  3.0

     negative rho (up, down):  1.332E+00 0.000E+00

     total cpu time spent up to now is     2017.2 secs

     total energy              =   -7779.06332412 Ry
     estimated scf accuracy    <       0.00002338 Ry

     iteration # 99     ecut=    30.00 Ry     beta= 0.40
     Davidson diagonalization with overlap
     ethr =  7.82E-10,  avg # of iterations =  3.0

     negative rho (up, down):  1.332E+00 0.000E+00

     total cpu time spent up to now is     2037.3 secs

     total energy              =   -7779.06334645 Ry
     estimated scf accuracy    <       0.00003756 Ry

     iteration #100     ecut=    30.00 Ry     beta= 0.40
     Davidson diagonalization with overlap
     ethr =  7.82E-10,  avg # of iterations =  3.0

     negative rho (up, down):  1.333E+00 0.000E+00

     total cpu time spent up to now is     2057.4 secs

     total energy              =   -7779.06337638 Ry
     estimated scf accuracy    <       0.00003289 Ry

     iteration #101     ecut=    30.00 Ry     beta= 0.40
     Davidson diagonalization with overlap
     ethr =  7.82E-10,  avg # of iterations =  3.0

     negative rho (up, down):  1.333E+00 0.000E+00

     total cpu time spent up to now is     2077.5 secs

     total energy              =   -7779.06340726 Ry
     estimated scf accuracy    <       0.00002661 Ry

     iteration #102     ecut=    30.00 Ry     beta= 0.40
     Davidson diagonalization with overlap
     ethr =  7.82E-10,  avg # of iterations =  3.0

     negative rho (up, down):  1.333E+00 0.000E+00

     total cpu time spent up to now is     2097.5 secs

     total energy              =   -7779.06339749 Ry
     estimated scf accuracy    <       0.00002064 Ry

     iteration #103     ecut=    30.00 Ry     beta= 0.40
     Davidson diagonalization with overlap
     ethr =  7.82E-10,  avg # of iterations =  2.0

     negative rho (up, down):  1.333E+00 0.000E+00

     total cpu time spent up to now is     2117.4 secs

     total energy              =   -7779.06342148 Ry
     estimated scf accuracy    <       0.00002209 Ry

     iteration #104     ecut=    30.00 Ry     beta= 0.40
     Davidson diagonalization with overlap
     ethr =  7.82E-10,  avg # of iterations =  4.0

     negative rho (up, down):  1.334E+00 0.000E+00

     total cpu time spent up to now is     2137.5 secs

     total energy              =   -7779.06342234 Ry
     estimated scf accuracy    <       0.00002072 Ry

     iteration #105     ecut=    30.00 Ry     beta= 0.40
     Davidson diagonalization with overlap
     ethr =  7.82E-10,  avg # of iterations =  2.0

     negative rho (up, down):  1.334E+00 0.000E+00

     total cpu time spent up to now is     2157.4 secs

     total energy              =   -7779.06339504 Ry
     estimated scf accuracy    <       0.00001869 Ry

     iteration #106     ecut=    30.00 Ry     beta= 0.40
     Davidson diagonalization with overlap
     ethr =  7.82E-10,  avg # of iterations =  2.0

     negative rho (up, down):  1.334E+00 0.000E+00

     total cpu time spent up to now is     2177.9 secs

     total energy              =   -7779.06335735 Ry
     estimated scf accuracy    <       0.00002383 Ry

     iteration #107     ecut=    30.00 Ry     beta= 0.40
     Davidson diagonalization with overlap
     ethr =  7.82E-10,  avg # of iterations =  2.0

     negative rho (up, down):  1.335E+00 0.000E+00

     total cpu time spent up to now is     2198.3 secs

     total energy              =   -7779.06338087 Ry
     estimated scf accuracy    <       0.00003102 Ry

     iteration #108     ecut=    30.00 Ry     beta= 0.40
     Davidson diagonalization with overlap
     ethr =  7.82E-10,  avg # of iterations =  6.0

     negative rho (up, down):  1.335E+00 0.000E+00

     total cpu time spent up to now is     2219.0 secs

     total energy              =   -7779.06330651 Ry
     estimated scf accuracy    <       0.00006283 Ry

     iteration #109     ecut=    30.00 Ry     beta= 0.40
     Davidson diagonalization with overlap
     ethr =  7.82E-10,  avg # of iterations =  6.0

     negative rho (up, down):  1.335E+00 0.000E+00

     total cpu time spent up to now is     2239.6 secs

     total energy              =   -7779.06326614 Ry
     estimated scf accuracy    <       0.00004055 Ry

     iteration #110     ecut=    30.00 Ry     beta= 0.40
     Davidson diagonalization with overlap
     ethr =  7.82E-10,  avg # of iterations =  3.0

     negative rho (up, down):  1.335E+00 0.000E+00

     total cpu time spent up to now is     2259.6 secs

     total energy              =   -7779.06324509 Ry
     estimated scf accuracy    <       0.00004764 Ry

     iteration #111     ecut=    30.00 Ry     beta= 0.40
     Davidson diagonalization with overlap
     ethr =  7.82E-10,  avg # of iterations =  2.0

     negative rho (up, down):  1.335E+00 0.000E+00

     total cpu time spent up to now is     2279.7 secs

     total energy              =   -7779.06334003 Ry
     estimated scf accuracy    <       0.00005112 Ry

     iteration #112     ecut=    30.00 Ry     beta= 0.40
     Davidson diagonalization with overlap
     ethr =  7.82E-10,  avg # of iterations =  2.0

     negative rho (up, down):  1.335E+00 0.000E+00

     total cpu time spent up to now is     2299.7 secs

     total energy              =   -7779.06326036 Ry
     estimated scf accuracy    <       0.00003699 Ry

     iteration #113     ecut=    30.00 Ry     beta= 0.40
     Davidson diagonalization with overlap
     ethr =  7.82E-10,  avg # of iterations =  3.0

     negative rho (up, down):  1.336E+00 0.000E+00

     total cpu time spent up to now is     2319.7 secs

     total energy              =   -7779.06322034 Ry
     estimated scf accuracy    <       0.00005090 Ry

     iteration #114     ecut=    30.00 Ry     beta= 0.40
     Davidson diagonalization with overlap
     ethr =  7.82E-10,  avg # of iterations =  2.0

     negative rho (up, down):  1.336E+00 0.000E+00

     total cpu time spent up to now is     2339.6 secs

     total energy              =   -7779.06318130 Ry
     estimated scf accuracy    <       0.00005636 Ry

     iteration #115     ecut=    30.00 Ry     beta= 0.40
     Davidson diagonalization with overlap
     ethr =  7.82E-10,  avg # of iterations =  3.0

     negative rho (up, down):  1.336E+00 0.000E+00

     total cpu time spent up to now is     2359.6 secs

     total energy              =   -7779.06311859 Ry
     estimated scf accuracy    <       0.00005855 Ry

     iteration #116     ecut=    30.00 Ry     beta= 0.40
     Davidson diagonalization with overlap
     ethr =  7.82E-10,  avg # of iterations =  2.0

     negative rho (up, down):  1.336E+00 0.000E+00

     total cpu time spent up to now is     2379.5 secs

     total energy              =   -7779.06305417 Ry
     estimated scf accuracy    <       0.00007049 Ry

     iteration #117     ecut=    30.00 Ry     beta= 0.40
     Davidson diagonalization with overlap
     ethr =  7.82E-10,  avg # of iterations =  3.0

     negative rho (up, down):  1.336E+00 0.000E+00

     total cpu time spent up to now is     2399.6 secs

     total energy              =   -7779.06300418 Ry
     estimated scf accuracy    <       0.00007987 Ry

     iteration #118     ecut=    30.00 Ry     beta= 0.40
     Davidson diagonalization with overlap
     ethr =  7.82E-10,  avg # of iterations =  2.0

     negative rho (up, down):  1.336E+00 0.000E+00

     total cpu time spent up to now is     2419.6 secs

     total energy              =   -7779.06321251 Ry
     estimated scf accuracy    <       0.00008766 Ry

     iteration #119     ecut=    30.00 Ry     beta= 0.40
     Davidson diagonalization with overlap
     ethr =  7.82E-10,  avg # of iterations =  3.0

     negative rho (up, down):  1.336E+00 0.000E+00

     total cpu time spent up to now is     2439.7 secs

     total energy              =   -7779.06314906 Ry
     estimated scf accuracy    <       0.00005983 Ry

     iteration #120     ecut=    30.00 Ry     beta= 0.40
     Davidson diagonalization with overlap
     ethr =  7.82E-10,  avg # of iterations =  2.0

     negative rho (up, down):  1.336E+00 0.000E+00

     total cpu time spent up to now is     2459.6 secs

     total energy              =   -7779.06309456 Ry
     estimated scf accuracy    <       0.00006689 Ry

     iteration #121     ecut=    30.00 Ry     beta= 0.40
     Davidson diagonalization with overlap
     ethr =  7.82E-10,  avg # of iterations =  2.0

     negative rho (up, down):  1.336E+00 0.000E+00

     total cpu time spent up to now is     2479.5 secs

     total energy              =   -7779.06311603 Ry
     estimated scf accuracy    <       0.00007488 Ry

     iteration #122     ecut=    30.00 Ry     beta= 0.40
     Davidson diagonalization with overlap
     ethr =  7.82E-10,  avg # of iterations =  3.0

     negative rho (up, down):  1.336E+00 0.000E+00

     total cpu time spent up to now is     2499.5 secs

     total energy              =   -7779.06313764 Ry
     estimated scf accuracy    <       0.00007087 Ry

     iteration #123     ecut=    30.00 Ry     beta= 0.40
     Davidson diagonalization with overlap
     ethr =  7.82E-10,  avg # of iterations =  2.0

     negative rho (up, down):  1.336E+00 0.000E+00

     total cpu time spent up to now is     2519.3 secs

     total energy              =   -7779.06314879 Ry
     estimated scf accuracy    <       0.00006889 Ry

     iteration #124     ecut=    30.00 Ry     beta= 0.40
     Davidson diagonalization with overlap
     ethr =  7.82E-10,  avg # of iterations =  2.0

     negative rho (up, down):  1.337E+00 0.000E+00

     total cpu time spent up to now is     2539.2 secs

     total energy              =   -7779.06312605 Ry
     estimated scf accuracy    <       0.00007148 Ry

     iteration #125     ecut=    30.00 Ry     beta= 0.40
     Davidson diagonalization with overlap
     ethr =  7.82E-10,  avg # of iterations =  2.0

     negative rho (up, down):  1.337E+00 0.000E+00

     total cpu time spent up to now is     2559.0 secs

     total energy              =   -7779.06314943 Ry
     estimated scf accuracy    <       0.00007423 Ry

     iteration #126     ecut=    30.00 Ry     beta= 0.40
     Davidson diagonalization with overlap
     ethr =  7.82E-10,  avg # of iterations =  2.0

     negative rho (up, down):  1.336E+00 0.000E+00

     total cpu time spent up to now is     2579.0 secs

     total energy              =   -7779.06318419 Ry
     estimated scf accuracy    <       0.00006881 Ry

     iteration #127     ecut=    30.00 Ry     beta= 0.40
     Davidson diagonalization with overlap
     ethr =  7.82E-10,  avg # of iterations =  2.0

     negative rho (up, down):  1.337E+00 0.000E+00

     total cpu time spent up to now is     2598.9 secs

     total energy              =   -7779.06317566 Ry
     estimated scf accuracy    <       0.00006346 Ry

     iteration #128     ecut=    30.00 Ry     beta= 0.40
     Davidson diagonalization with overlap
     ethr =  7.82E-10,  avg # of iterations =  2.0

     negative rho (up, down):  1.337E+00 0.000E+00

     total cpu time spent up to now is     2618.8 secs

     total energy              =   -7779.06318633 Ry
     estimated scf accuracy    <       0.00006471 Ry

     iteration #129     ecut=    30.00 Ry     beta= 0.40
     Davidson diagonalization with overlap
     ethr =  7.82E-10,  avg # of iterations =  2.0

     negative rho (up, down):  1.339E+00 0.000E+00

     total cpu time spent up to now is     2638.7 secs

     total energy              =   -7779.06177310 Ry
     estimated scf accuracy    <       0.00006265 Ry

     iteration #130     ecut=    30.00 Ry     beta= 0.40
     Davidson diagonalization with overlap
     ethr =  7.82E-10,  avg # of iterations =  6.0

     negative rho (up, down):  1.335E+00 0.000E+00

     total cpu time spent up to now is     2660.3 secs

     total energy              =   -7779.06353440 Ry
     estimated scf accuracy    <       0.00028780 Ry

     iteration #131     ecut=    30.00 Ry     beta= 0.40
     Davidson diagonalization with overlap
     ethr =  7.82E-10,  avg # of iterations =  7.0

     negative rho (up, down):  1.335E+00 0.000E+00

     total cpu time spent up to now is     2681.5 secs

     total energy              =   -7779.06357419 Ry
     estimated scf accuracy    <       0.00002955 Ry

     iteration #132     ecut=    30.00 Ry     beta= 0.40
     Davidson diagonalization with overlap
     ethr =  7.82E-10,  avg # of iterations =  6.0

     negative rho (up, down):  1.335E+00 0.000E+00

     total cpu time spent up to now is     2702.0 secs

     total energy              =   -7779.06358114 Ry
     estimated scf accuracy    <       0.00000718 Ry

     iteration #133     ecut=    30.00 Ry     beta= 0.40
     Davidson diagonalization with overlap
     ethr =  7.82E-10,  avg # of iterations =  2.0

     negative rho (up, down):  1.336E+00 0.000E+00

     total cpu time spent up to now is     2721.9 secs

     total energy              =   -7779.06357798 Ry
     estimated scf accuracy    <       0.00000404 Ry

     iteration #134     ecut=    30.00 Ry     beta= 0.40
     Davidson diagonalization with overlap
     ethr =  6.20E-10,  avg # of iterations =  2.0

     negative rho (up, down):  1.336E+00 0.000E+00

     total cpu time spent up to now is     2741.9 secs

     total energy              =   -7779.06358101 Ry
     estimated scf accuracy    <       0.00000246 Ry

     iteration #135     ecut=    30.00 Ry     beta= 0.40
     Davidson diagonalization with overlap
     ethr =  3.77E-10,  avg # of iterations =  2.0

     negative rho (up, down):  1.336E+00 0.000E+00

     total cpu time spent up to now is     2761.9 secs

     total energy              =   -7779.06358340 Ry
     estimated scf accuracy    <       0.00000142 Ry

     iteration #136     ecut=    30.00 Ry     beta= 0.40
     Davidson diagonalization with overlap
     ethr =  2.18E-10,  avg # of iterations =  2.0

     negative rho (up, down):  1.336E+00 0.000E+00

     total cpu time spent up to now is     2781.8 secs

     total energy              =   -7779.06358307 Ry
     estimated scf accuracy    <       0.00000086 Ry

     iteration #137     ecut=    30.00 Ry     beta= 0.40
     Davidson diagonalization with overlap
     ethr =  1.32E-10,  avg # of iterations =  6.0

     negative rho (up, down):  1.336E+00 0.000E+00

     total cpu time spent up to now is     2802.0 secs

     total energy              =   -7779.06358512 Ry
     estimated scf accuracy    <       0.00000026 Ry

     iteration #138     ecut=    30.00 Ry     beta= 0.40
     Davidson diagonalization with overlap
     ethr =  4.01E-11,  avg # of iterations =  6.0

     negative rho (up, down):  1.336E+00 0.000E+00

     total cpu time spent up to now is     2822.3 secs

     total energy              =   -7779.06358373 Ry
     estimated scf accuracy    <       0.00000023 Ry

     iteration #139     ecut=    30.00 Ry     beta= 0.40
     Davidson diagonalization with overlap
     ethr =  3.49E-11,  avg # of iterations =  3.0

     negative rho (up, down):  1.336E+00 0.000E+00

     total cpu time spent up to now is     2842.4 secs

     End of self-consistent calculation

          k = 0.0000 0.0000 0.0000 ( 46193 PWs)   bands (ev):

   -57.9869 -57.8942 -57.8898 -57.8754 -57.8722 -57.8630 -57.8523 -57.8426
   -57.8402 -57.8299 -57.8278 -57.8060 -57.7999 -57.7865 -57.7775 -57.7734
   -57.7669 -57.7644 -57.7556 -57.7471 -57.7455 -57.7415 -57.7397 -57.7385
   -57.7264 -57.7235 -57.7174 -57.7138 -57.7074 -57.7047 -57.6803 -57.6614
   -34.3976 -34.3781 -34.3487 -34.3312 -34.3205 -34.3133 -34.2802 -34.2740
   -34.2566 -34.2494 -34.2431 -34.2382 -34.2363 -34.2326 -34.2283 -34.2225
   -34.2175 -34.2129 -34.2072 -34.2059 -34.1972 -34.1768 -34.1717 -34.1646
   -34.1533 -34.1430 -34.1397 -34.1376 -34.1337 -34.1316 -34.1111 -34.1086
   -34.1042 -34.1017 -34.0994 -34.0960 -34.0905 -34.0828 -34.0777 -34.0717
   -34.0701 -34.0660 -34.0593 -34.0580 -34.0544 -34.0427 -34.0412 -34.0378
   -34.0314 -34.0294 -34.0216 -34.0204 -34.0152 -34.0113 -34.0078 -34.0058
   -34.0016 -33.9972 -33.9928 -33.9850 -33.9788 -33.9746 -33.9730 -33.9658
   -33.9653 -33.9612 -33.9531 -33.9514 -33.9472 -33.9449 -33.9437 -33.9409
   -33.9386 -33.9339 -33.9295 -33.9236 -33.9206 -33.9152 -33.9095 -33.9076
   -33.9021 -33.8947 -33.8894 -33.8770 -33.8674 -33.8671 -33.8581 -33.8526
   -33.8428 -33.8342 -33.8254 -33.8232 -33.8086 -33.8059 -33.7946 -33.7850
   -18.4067 -18.2817 -18.1833 -18.1615 -18.1398 -18.0792 -18.0653 -18.0579
   -18.0263 -18.0238 -18.0130 -17.9993 -17.9845 -17.9553 -17.9227 -17.9099
   -17.8865 -17.8777 -17.8392 -17.8375 -17.8275 -17.8240 -17.8191 -17.8146
   -17.8016 -17.7968 -17.7946 -17.7885 -17.7599 -17.7494 -17.7049 -17.6655
   -10.9652 -10.5772 -10.5428 -10.5386 -10.4073 -10.3975 -10.3401  -9.9187
    -9.8328  -9.6903  -9.6377  -9.6034  -9.5986  -9.5083  -9.4975  -9.4784
    -7.5347  -7.5130  -7.4857  -7.3684  -7.3631  -6.0254  -5.9509  -5.9427
    -5.6605  -5.3840  -5.2041  -5.1864  -5.1749  -5.1453  -5.1394  -5.1119
    -5.0057  -4.9920  -4.9832  -4.9768  -4.9677  -4.9552  -4.9457  -4.9401
    -4.9246  -4.9108  -4.9005  -4.8975  -4.8710  -4.8672  -4.8203  -4.7285
    -4.6957  -4.6894  -4.6690  -4.6337  -4.6095  -4.6048  -4.5676  -4.5643
    -4.5570  -4.5544  -4.5190  -4.4868  -4.4661  -4.4571  -4.4519  -4.4417
    -4.4361  -4.4243  -4.1479  -4.1411  -4.1249  -4.1153  -4.1085  -4.0781
    -4.0713  -4.0674  -4.0633  -4.0607  -4.0572  -4.0482  -4.0322  -4.0259
    -4.0203  -4.0111  -3.9993  -3.9777  -3.9521  -3.9390  -3.9189  -3.9168
    -3.9096  -3.8989  -3.8871  -3.8709  -3.8698  -3.8573  -3.8479  -3.8428
    -3.8386  -3.8148  -3.8119  -3.7436  -3.7073  -3.6792  -3.6657  -3.6361
    -3.6248  -3.5862  -3.5782  -3.5571  -3.5530  -3.4939  -3.4905  -3.4679
    -3.4431  -3.4279  -3.3792  -3.3696  -3.3435  -3.1365  -3.1055  -3.0955
    -2.7147  -2.6903  -2.6326  -2.5501  -2.5090  -2.5050  -2.4943  -2.4270
    -2.4098  -2.3894  -2.3439  -2.3350  -2.3108  -2.2903  -2.2854  -2.2743
    -2.2560  -2.2446  -2.2279  -2.1495  -2.0956  -2.0651  -2.0252  -1.9706
    -1.4497  -1.4452  -1.4427  -1.2903  -1.2784  -1.2631  -1.1936  -1.0912
    -1.0711  -1.0572  -1.0439  -1.0196  -0.9646  -0.9477  -0.9035  -0.8533
    -0.8374  -0.8325  -0.7277   0.3314   0.3426   0.3763   0.4903   0.5344
     0.6441   0.9727   0.9946   1.0166   1.0670   1.0990   1.1345   1.2009
     1.2159   1.4435   1.5125   1.5323   1.5413   1.5468   1.5760   1.9610
     1.9627   1.9700   1.9861   1.9968   2.0091   2.0416   2.0751   2.0773
     2.0868   2.1296   2.1315   2.1345   2.1575   2.2047   2.2225   2.2511
     2.2568   2.3109   2.3218   2.3396   2.3656   2.3694   2.3799   2.3845
     2.4021   2.4125   2.4235   2.4334   2.4443   2.6788   2.6878   2.6927
     2.7087   2.7637   2.7856   2.7969   2.8010   2.8149   2.8348   2.8501
     2.8564   2.8632   2.8744   2.8863   2.8874   2.9070   2.9112

     the Fermi energy is     0.4380 ev

!    total energy              =   -7779.06358608 Ry
     estimated scf accuracy    <       0.00000002 Ry
     smearing contrib. (-TS)   =      -0.00171776 Ry
     internal energy E=F+TS    =   -7779.06186832 Ry

     The total energy is F=E-TS. E is the sum of the following terms:
     one-electron contribution =  -36443.23382186 Ry
     hartree contribution      =   18285.94641762 Ry
     xc contribution           =    -895.46570410 Ry
     ewald contribution        =   13967.95228421 Ry
     one-center paw contrib.   =   -2694.26104419 Ry

     convergence has been achieved in 139 iterations

     negative rho (up, down):  1.336E+00 0.000E+00

     Forces acting on atoms (cartesian axes, Ry/au):

     atom    1 type  1   force =     0.01257075    0.00315890    0.00319433
     atom    2 type  1   force =     0.00330514    0.00170857    0.00365651
     atom    3 type  1   force =    -0.02290285   -0.00275549    0.01940961
     atom    4 type  1   force =    -0.00334032    0.00199318    0.00317280
     atom    5 type  1   force =     0.03324035    0.01047799    0.01406379
     atom    6 type  1   force =     0.01893711    0.01672224    0.00692591
     atom    7 type  1   force =     0.00392238    0.00006414    0.00296037
     atom    8 type  1   force =     0.00395632   -0.03322518    0.01454709
     atom    9 type  1   force =    -0.00916522    0.00234301    0.00088885
     atom   10 type  1   force =     0.00024014   -0.01029152    0.00228591
     atom   11 type  1   force =     0.00560955   -0.00178310    0.00246055
     atom   12 type  1   force =    -0.00714919   -0.01483292    0.00566264
     atom   13 type  1   force =    -0.00081013   -0.00192895    0.00091345
     atom   14 type  1   force =    -0.01735846   -0.00048079    0.00232847
     atom   15 type  1   force =    -0.01960024    0.01813896    0.00552054
     atom   16 type  1   force =     0.00124337    0.00083486   -0.00009558
     atom   17 type  3   force =    -0.00809983   -0.00415078    0.01229725
     atom   18 type  3   force =    -0.00502170   -0.00552922   -0.00579595
     atom   19 type  3   force =     0.00438262    0.00531793    0.01010304
     atom   20 type  3   force =    -0.00299256    0.01808673    0.01297314
     atom   21 type  3   force =     0.02653941   -0.01551852   -0.02192990
     atom   22 type  3   force =     0.00407864   -0.00543108   -0.00372241
     atom   23 type  3   force =     0.01597050   -0.00445855    0.00902537
     atom   24 type  3   force =     0.00240333   -0.00623880   -0.00547870
     atom   25 type  3   force =    -0.02239972   -0.01427346    0.01411102
     atom   26 type  3   force =    -0.00488497    0.00492751   -0.00405595
     atom   27 type  3   force =    -0.00069097    0.00046616   -0.00065249
     atom   28 type  3   force =     0.02306420    0.01330555    0.01949510
     atom   29 type  3   force =     0.02198064    0.02083357   -0.03581642
     atom   30 type  3   force =     0.00088487    0.00951476   -0.00856000
     atom   31 type  3   force =     0.00269472    0.01280678    0.00746753
     atom   32 type  3   force =    -0.02208634   -0.01908558   -0.02143985
     atom   33 type  3   force =    -0.00241863    0.02318330   -0.02109197
     atom   34 type  3   force =     0.01268717   -0.01094677    0.01354974
     atom   35 type  3   force =     0.00705002   -0.01037344    0.00706203
     atom   36 type  3   force =    -0.02228170   -0.00654924   -0.02181084
     atom   37 type  3   force =    -0.02115833    0.00340076    0.01081945
     atom   38 type  3   force =    -0.00216360    0.00374145   -0.00641831
     atom   39 type  3   force =    -0.01203930   -0.00312520   -0.00941258
     atom   40 type  3   force =    -0.00340854    0.00016375    0.00101923
     atom   41 type  3   force =     0.00817796    0.00059279    0.01045772
     atom   42 type  3   force =     0.00790158    0.00280575   -0.00334331
     atom   43 type  3   force =    -0.00653767   -0.00298209   -0.00522883
     atom   44 type  3   force =     0.00901120   -0.00171320   -0.00680218
     atom   45 type  3   force =    -0.00053788   -0.00254269    0.00134329
     atom   46 type  3   force =    -0.00791667   -0.02213544    0.01337255
     atom   47 type  3   force =     0.00022920   -0.00054577   -0.00248437
     atom   48 type  3   force =    -0.00377135    0.01109305    0.00717235
     atom   49 type  4   force =     0.01049052   -0.03380654    0.02634781
     atom   50 type  4   force =    -0.01854180    0.02024581    0.01752445
     atom   51 type  4   force =    -0.02078947   -0.01827079   -0.04612776
     atom   52 type  4   force =    -0.01795625    0.01438031    0.01441388
     atom   53 type  4   force =    -0.02685009    0.01553280   -0.01819069
     atom   54 type  4   force =     0.00143921   -0.02573093   -0.01730713
     atom   55 type  4   force =    -0.00112716   -0.01368299    0.01668385
     atom   56 type  4   force =    -0.00069514   -0.00063723    0.00163116
     atom   57 type  4   force =     0.01066625    0.04205608   -0.03619991
     atom   58 type  4   force =    -0.03612900   -0.00905341   -0.04439457
     atom   59 type  4   force =     0.04660737    0.02229751    0.00313811
     atom   60 type  4   force =    -0.00041921    0.02975694   -0.02047814
     atom   61 type  4   force =     0.00998440    0.02547940    0.02048554
     atom   62 type  4   force =     0.01831356   -0.01116878   -0.01975997
     atom   63 type  4   force =     0.00086469    0.00349838    0.01615908
     atom   64 type  4   force =     0.04104839   -0.01300028   -0.03559117
     atom   65 type  4   force =     0.01993929   -0.00280725    0.02272200
     atom   66 type  4   force =     0.01428653    0.00923513   -0.00252341
     atom   67 type  4   force =     0.00705838    0.00795849    0.00430075
     atom   68 type  4   force =    -0.02703358   -0.02521036    0.03264482
     atom   69 type  4   force =     0.00327230    0.00968526   -0.01166403
     atom   70 type  4   force =    -0.00336421    0.00182875   -0.01179267
     atom   71 type  4   force =     0.00027020   -0.00323934    0.01133628
     atom   72 type  4   force =     0.01038136   -0.00353541   -0.01471770
     atom   73 type  4   force =    -0.00530833    0.00141982    0.01420648
     atom   74 type  4   force =    -0.02512208    0.01174544    0.00329462
     atom   75 type  4   force =     0.00138747   -0.00321957    0.00011318
     atom   76 type  4   force =    -0.00405468   -0.00114596   -0.01511476
     atom   77 type  4   force =    -0.02084724   -0.01742591   -0.01872894
     atom   78 type  4   force =     0.00200935   -0.01832529    0.01316767
     atom   79 type  4   force =     0.01201058   -0.00011836    0.00364081
     atom   80 type  4   force =    -0.00177238    0.00260980   -0.00159768
     atom   81 type  2   force =    -0.00136424   -0.00213540    0.03825807

     Total force =     0.233460     Total SCF correction =     0.000530


     Computing stress (Cartesian axis) and pressure


     negative rho (up, down):  1.336E+00 0.000E+00
          total   stress  (Ry/bohr**3)                   (kbar)     P=     -113.74
  -0.00078992   0.00000126  -0.00000004         -116.20        0.18       -0.01
   0.00000126  -0.00079121   0.00000096            0.18     -116.39        0.14
  -0.00000004   0.00000096  -0.00073852           -0.01        0.14     -108.64


     Writing all to output data dir /root/qe_scratch/cand168_A_Ti2CO2_Cd.save/ :
     XML data file, charge density, pseudopotentials, collected wavefunctions
 
     init_run     :     20.71s CPU     26.21s WALL (       1 calls)
     electrons    :   2331.43s CPU   2815.39s WALL (       1 calls)
     forces       :      1.76s CPU      1.81s WALL (       1 calls)
     stress       :      2.79s CPU      2.83s WALL (       1 calls)

     Called by init_run:
     wfcinit      :      0.93s CPU      1.17s WALL (       1 calls)
     potinit      :     18.44s CPU     23.20s WALL (       1 calls)
     hinit0       :      0.74s CPU      0.84s WALL (       1 calls)

     Called by electrons:
     c_bands      :    253.08s CPU    253.54s WALL (     139 calls)
     sum_band     :     34.92s CPU     35.00s WALL (     139 calls)
     v_of_rho     :     11.92s CPU     15.37s WALL (     140 calls)
     newd         :     45.11s CPU     45.44s WALL (     140 calls)
                                       45.44s GPU  (     140 calls)
     PAW_pot      :   1969.82s CPU   2448.35s WALL (     140 calls)
     mix_rho      :      9.12s CPU      9.34s WALL (     139 calls)

     Called by c_bands:
     init_us_2    :      0.83s CPU      0.84s WALL (     279 calls)
     cegterg      :    249.95s CPU    250.28s WALL (     139 calls)

     Called by *egterg:
     cdiaghg      :     21.95s CPU     22.01s WALL (     696 calls)
                                       22.01s GPU  (     696 calls)
     h_psi        :     98.66s CPU     99.14s WALL (     697 calls)
                                       99.09s GPU  (     697 calls)
     s_psi        :      1.93s CPU      1.93s WALL (     697 calls)
     g_psi        :      0.00s CPU      0.32s WALL (     557 calls)
                                        0.32s GPU  (     557 calls)

     Called by h_psi:
     h_psi:calbec :      0.09s CPU     37.63s WALL (     697 calls)
                                       37.63s GPU  (     697 calls)
     vloc_psi     :     31.18s CPU     31.41s WALL (     697 calls)
                                       31.41s GPU  (     697 calls)
     add_vuspsi   :      1.97s CPU     29.86s WALL (     697 calls)
                                       29.86s GPU  (     697 calls)

     General routines
     calbec       :      0.09s CPU      0.29s WALL (     841 calls)
     fft          :     13.37s CPU     17.47s WALL (    1843 calls)
                                        0.36s GPU  (    1703 calls)
     ffts         :      6.52s CPU      8.13s WALL (     279 calls)
                                        0.02s GPU  (     139 calls)
     fftw         :      0.30s CPU     31.29s WALL (   21035 calls)
                                       31.22s GPU  (   21035 calls)
     interpolate  :     21.20s CPU     26.66s WALL (     140 calls)
 
     Parallel routines
 
     PWSCF        :  39m17.73s CPU  47m27.64s WALL

 
   This run was terminated on:  16:25:22   6May2026            

=------------------------------------------------------------------------------=
   JOB DONE.
=------------------------------------------------------------------------------=
Warning: ieee_invalid is signaling
Warning: ieee_divide_by_zero is signaling
Warning: ieee_underflow is signaling
Warning: ieee_inexact is signaling
FORTRAN STOP
