--------------------------------------------------------------------------
WARNING: Open MPI tried to bind a process but failed.  This is a
warning only; your job will continue, though performance may
be degraded.

  Local host:        3253031b5b37
  Application name:  /root/qe-7.3.1/bin/pw.x
  Error message:     failed to bind memory
  Location:          ../../../../../orte/mca/rtc/hwloc/rtc_hwloc.c:447

--------------------------------------------------------------------------

     Program PWSCF v.7.3.1 starts on  6May2026 at  8:24:33 

     This program is part of the open-source Quantum ESPRESSO suite
     for quantum simulation of materials; please cite
         "P. Giannozzi et al., J. Phys.:Condens. Matter 21 395502 (2009);
         "P. Giannozzi et al., J. Phys.:Condens. Matter 29 465901 (2017);
         "P. Giannozzi et al., J. Chem. Phys. 152 154105 (2020);
          URL http://www.quantum-espresso.org", 
     in publications or presentations arising from this work. More details at
     http://www.quantum-espresso.org/quote

     Parallel version (MPI & OpenMP), running on       8 processor cores
     Number of MPI processes:                 1
     Threads/MPI process:                     8

     MPI processes distributed on     1 nodes
     88434 MiB available memory on the printing compute node when the environment starts
 
     Reading input from pristine_C2H2.in

     Current dimensions of program PWSCF are:
     Max number of different atomic species (ntypx) = 10
     Max number of k-points (npk) =  40000
     Max angular momentum in pseudopotentials (lmaxx) =  4
     Message from routine setup:
     using ibrav=0 with symmetry is DISCOURAGED, use correct ibrav instead
 
     Subspace diagonalization in iterative solution of the eigenvalue problem:
     a serial algorithm will be used

 
     G-vector sticks info
     --------------------
     sticks:   dense  smooth     PW     G-vecs:    dense   smooth      PW
     Sum        4543    3049    757               410757   223959   27967
 
     Using Slab Decomposition
 


     bravais-lattice index     =            0
     lattice parameter (alat)  =      19.1916  a.u.
     unit-cell volume          =   10078.2675 (a.u.)^3
     number of atoms/cell      =           64
     number of atomic types    =            2
     number of electrons       =       160.00
     number of Kohn-Sham states=           96
     kinetic-energy cutoff     =      30.0000  Ry
     charge density cutoff     =     180.0000  Ry
     scf convergence threshold =      1.0E-07
     mixing beta               =       0.4000
     number of iterations used =            8  plain     mixing
     Exchange-correlation= SLA  PW   PBX  PBC
                           (   1   4   3   4   0   0   0)

     GPU acceleration is ACTIVE.  1 visible GPUs per MPI rank


     celldm(1)=  19.191551  celldm(2)=   0.000000  celldm(3)=   0.000000
     celldm(4)=   0.000000  celldm(5)=   0.000000  celldm(6)=   0.000000

     crystal axes: (cart. coord. in units of alat)
               a(1) = (   1.000000   0.000000   0.000000 )  
               a(2) = (  -0.500000   0.866025   0.000000 )  
               a(3) = (   0.000000   0.000000   1.646361 )  

     reciprocal axes: (cart. coord. in units 2 pi/alat)
               b(1) = (  1.000000  0.577350 -0.000000 )  
               b(2) = (  0.000000  1.154701  0.000000 )  
               b(3) = (  0.000000 -0.000000  0.607400 )  


     PseudoPot. # 1 for C  read from file:
     /root/qe_pseudos/C.UPF
     MD5 check sum: 9b35a7431356f8229172919cb1fa74b8
     Pseudo is Norm-conserving, Zval =  4.0
     Generated by new atomic code, or converted to UPF format
     Using radial grid of 1073 points,  1 beta functions with: 
                l(1) =   0

     PseudoPot. # 2 for H  read from file:
     /root/qe_pseudos/H.UPF
     MD5 check sum: a225a3f3a1be5237eb8f6a7e61cbb4ee
     Pseudo is Projector augmented-wave, Zval =  1.0
     Generated using "atomic" code by A. Dal Corso (espresso distribution)
     Shape of augmentation charge: PSQ
     Using radial grid of  929 points,  2 beta functions with: 
                l(1) =   0
                l(2) =   0
     Q(r) pseudized with 0 coefficients 


     atomic species   valence    mass     pseudopotential
     C                 4.00    12.01100     C ( 1.00)
     H                 1.00     1.00800     H ( 1.00)

      6 Sym. Ops. (no inversion) found ( 4 have fractional translation)



   Cartesian axes

     site n.     atom                  positions (alat units)
         1        C      tau(   1) = (   0.0001976   0.5774645   0.8475620  )
         2        C      tau(   2) = (   0.2579657  -0.0045992   0.7912973  )
         3        C      tau(   3) = (  -0.1220647   0.7921620   0.8501530  )
         4        C      tau(   4) = (   0.5009194   0.1447867   0.8443827  )
         5        C      tau(   5) = (   0.2500768   0.4340412   0.8020095  )
         6        C      tau(   6) = (   0.3758486   0.3614156   0.8443827  )
         7        C      tau(   7) = (   0.1250000   0.6495191   0.8019126  )
         8        C      tau(   8) = (   0.2498023   0.5774645   0.8475620  )
         9        C      tau(   9) = (  -0.1241478   0.6489384   0.8020096  )
        10        C      tau(  10) = (   0.5009290  -0.0004477   0.8020095  )
        11        C      tau(  11) = (   0.6250001   0.2167356   0.7988573  )
        12        C      tau(  12) = (   0.7490808   0.1447866   0.8443828  )
        13        C      tau(  13) = (   0.5001986   0.4328980   0.7988574  )
        14        C      tau(  14) = (   0.6250000   0.3608439   0.8445339  )
        15        C      tau(  15) = (   0.3741477   0.6489383   0.8020096  )
        16        C      tau(  16) = (   0.4999292   0.5763295   0.8443828  )
        17        C      tau(  17) = (   0.7490710  -0.0004478   0.8020095  )
        18        C      tau(  18) = (   0.3720645   0.7921618   0.8501530  )
        19        C      tau(  19) = (   0.1249999   0.7936284   0.8475620  )
        20        C      tau(  20) = (   0.1250000   0.3642336   0.8501530  )
        21        C      tau(  21) = (  -0.1279380   0.2182026   0.7961848  )
        22        C      tau(  22) = (   0.3779383   0.2182027   0.7961847  )
        23        C      tau(  23) = (  -0.0000767   0.4340412   0.8020096  )
        24        C      tau(  24) = (  -0.3750000   0.6461261   0.7961848  )
        25        C      tau(  25) = (  -0.0079658  -0.0045996   0.7912974  )
        26        C      tau(  26) = (  -0.3750002   0.7846832   0.8549581  )
        27        C      tau(  27) = (  -0.1258485   0.3614155   0.8443827  )
        28        C      tau(  28) = (  -0.2501985   0.4328980   0.7988574  )
        29        C      tau(  29) = (  -0.2499293   0.5763295   0.8443827  )
        30        C      tau(  30) = (   0.2579444   0.1489244   0.8549586  )
        31        C      tau(  31) = (  -0.0079443   0.1489241   0.8549592  )
        32        C      tau(  32) = (   0.1250004   0.2257049   0.7912970  )
        33        H      tau(  33) = (  -0.0208178   0.1563566   0.9636145  )
        34        H      tau(  34) = (   0.6250000   0.3608440   0.9542578  )
        35        H      tau(  35) = (   0.1250000   0.6495191   0.6921722  )
        36        H      tau(  36) = (   0.5002435   0.4328721   0.6893648  )
        37        H      tau(  37) = (  -0.1261162   0.2171508   0.6870208  )
        38        H      tau(  38) = (   0.7503294   0.1466212   0.9540997  )
        39        H      tau(  39) = (   0.5021423   0.5764935   0.9540997  )
        40        H      tau(  40) = (   0.7502773  -0.0022809   0.6922932  )
        41        H      tau(  41) = (  -0.1268131   0.3594169   0.9540996  )
        42        H      tau(  42) = (  -0.0208678  -0.0120486   0.6826501  )
        43        H      tau(  43) = (   0.1249999   0.7935917   0.9570475  )
        44        H      tau(  44) = (   0.3731632   0.6508996   0.6922933  )
        45        H      tau(  45) = (   0.6250000   0.2167875   0.6893649  )
        46        H      tau(  46) = (   0.1250005   0.2406031   0.6826499  )
        47        H      tau(  47) = (   0.2478860   0.4339132   0.6922932  )
        48        H      tau(  48) = (   0.1250000   0.3620985   0.9593112  )
        49        H      tau(  49) = (   0.2708175   0.1563569   0.9636140  )
        50        H      tau(  50) = (   0.2708678  -0.0120482   0.6826500  )
        51        H      tau(  51) = (   0.0021141   0.4339131   0.6922932  )
        52        H      tau(  52) = (   0.0002295   0.5774828   0.9570476  )
        53        H      tau(  53) = (  -0.1231633   0.6508997   0.6922932  )
        54        H      tau(  54) = (  -0.1239139   0.7932297   0.9593112  )
        55        H      tau(  55) = (   0.3739136   0.7932295   0.9593113  )
        56        H      tau(  56) = (  -0.3750002   0.7698188   0.9636136  )
        57        H      tau(  57) = (   0.4997227  -0.0022809   0.6922931  )
        58        H      tau(  58) = (   0.4996707   0.1466213   0.9540996  )
        59        H      tau(  59) = (  -0.3750000   0.6482295   0.6870206  )
        60        H      tau(  60) = (   0.3761165   0.2171509   0.6870206  )
        61        H      tau(  61) = (   0.3768131   0.3594170   0.9540996  )
        62        H      tau(  62) = (  -0.2521425   0.5764936   0.9540997  )
        63        H      tau(  63) = (  -0.2502434   0.4328721   0.6893649  )
        64        H      tau(  64) = (   0.2497704   0.5774829   0.9570476  )

     number of k points=     1  Methfessel-Paxton smearing, width (Ry)=  0.0100
                       cart. coord. in units 2pi/alat
        k(    1) = (   0.0000000   0.0000000   0.0000000), wk =   2.0000000

     Dense  grid:   410757 G-vectors     FFT dimensions: (  96,  96, 135)

     Smooth grid:   223959 G-vectors     FFT dimensions: (  72,  72, 120)

     Estimated max dynamical RAM per process >     979.23 MB

     Initial potential from superposition of free atoms

     starting charge     143.9997, renormalised to     160.0000

     negative rho (up, down):  2.348E-03 0.000E+00
     Starting wfcs are  288 randomized atomic wfcs
     Checking if some PAW data can be deallocated... 

     total cpu time spent up to now is        7.2 secs

     Self-consistent Calculation

     iteration #  1     ecut=    30.00 Ry     beta= 0.40
     Davidson diagonalization with overlap
     ethr =  1.00E-02,  avg # of iterations =  2.0

     negative rho (up, down):  1.102E-03 0.000E+00

     total cpu time spent up to now is        7.9 secs

     total energy              =    -400.19828452 Ry
     estimated scf accuracy    <       3.49788516 Ry

     iteration #  2     ecut=    30.00 Ry     beta= 0.40
     Davidson diagonalization with overlap
     ethr =  2.19E-03,  avg # of iterations =  7.0

     negative rho (up, down):  1.043E-03 0.000E+00

     total cpu time spent up to now is        8.9 secs

     total energy              =    -400.41771218 Ry
     estimated scf accuracy    <       0.49748659 Ry

     iteration #  3     ecut=    30.00 Ry     beta= 0.40
     Davidson diagonalization with overlap
     ethr =  3.11E-04,  avg # of iterations =  7.0

     negative rho (up, down):  2.378E-03 0.000E+00

     total cpu time spent up to now is        9.6 secs

     total energy              =    -400.43820041 Ry
     estimated scf accuracy    <       0.08267343 Ry

     iteration #  4     ecut=    30.00 Ry     beta= 0.40
     Davidson diagonalization with overlap
     ethr =  5.17E-05,  avg # of iterations =  2.0

     negative rho (up, down):  1.334E-03 0.000E+00

     total cpu time spent up to now is       10.3 secs

     total energy              =    -400.44378508 Ry
     estimated scf accuracy    <       0.00214899 Ry

     iteration #  5     ecut=    30.00 Ry     beta= 0.40
     Davidson diagonalization with overlap
     ethr =  1.34E-06,  avg # of iterations =  6.0

     negative rho (up, down):  6.035E-04 0.000E+00

     total cpu time spent up to now is       11.0 secs

     total energy              =    -400.44432323 Ry
     estimated scf accuracy    <       0.00022088 Ry

     iteration #  6     ecut=    30.00 Ry     beta= 0.40
     Davidson diagonalization with overlap
     ethr =  1.38E-07,  avg # of iterations =  4.0

     negative rho (up, down):  2.573E-04 0.000E+00

     total cpu time spent up to now is       11.8 secs

     total energy              =    -400.44430209 Ry
     estimated scf accuracy    <       0.00015585 Ry

     iteration #  7     ecut=    30.00 Ry     beta= 0.40
     Davidson diagonalization with overlap
     ethr =  9.74E-08,  avg # of iterations =  3.0

     negative rho (up, down):  8.178E-05 0.000E+00

     total cpu time spent up to now is       12.5 secs

     total energy              =    -400.44434195 Ry
     estimated scf accuracy    <       0.00000853 Ry

     iteration #  8     ecut=    30.00 Ry     beta= 0.40
     Davidson diagonalization with overlap
     ethr =  5.33E-09,  avg # of iterations =  2.0

     negative rho (up, down):  2.436E-05 0.000E+00

     total cpu time spent up to now is       13.2 secs

     total energy              =    -400.44434419 Ry
     estimated scf accuracy    <       0.00000231 Ry

     iteration #  9     ecut=    30.00 Ry     beta= 0.40
     Davidson diagonalization with overlap
     ethr =  1.44E-09,  avg # of iterations =  2.0

     negative rho (up, down):  8.146E-06 0.000E+00

     total cpu time spent up to now is       13.9 secs

     total energy              =    -400.44434549 Ry
     estimated scf accuracy    <       0.00000012 Ry

     iteration # 10     ecut=    30.00 Ry     beta= 0.40
     Davidson diagonalization with overlap
     ethr =  7.67E-11,  avg # of iterations =  4.0

     negative rho (up, down):  2.574E-06 0.000E+00

     total cpu time spent up to now is       14.7 secs

     End of self-consistent calculation

          k = 0.0000 0.0000 0.0000 ( 27967 PWs)   bands (ev):

   -19.8227 -18.5022 -18.4705 -18.4705 -18.3493 -18.3492 -17.6391 -15.7188
   -15.7188 -15.6462 -15.4931 -15.4931 -15.1905 -15.0748 -14.5347 -14.5346
   -13.0501 -13.0501 -12.6451 -12.0870 -11.2221 -11.2138 -11.1028 -11.1028
   -10.9050 -10.8921 -10.8921 -10.8849 -10.8849 -10.8626 -10.8626 -10.6733
    -8.2327  -8.1249  -8.1248  -8.0914  -8.0914  -7.9760  -7.9760  -7.9096
    -7.9095  -7.8387  -7.6648  -7.6647  -7.6059  -7.6059  -7.4979  -6.8311
    -6.8311  -6.7758  -6.7443  -6.5255  -6.5255  -5.7816  -5.7816  -5.7144
    -5.5184  -5.2878  -5.2878  -5.2605  -5.2604  -5.1868  -5.1441  -5.1441
    -5.1311  -4.9858  -4.9401  -4.9336  -4.9335  -4.8012  -4.7440  -4.7440
    -3.9908  -3.7606  -3.7606  -3.6132  -3.6132  -3.3375  -1.7541  -1.7540
     1.0704   1.8764   2.8145   2.8145   2.8825   2.8943   2.8944   2.9195
     3.0580   3.1713   3.1714   3.2075   3.2075   3.2475   3.2560   3.4166

     the Fermi energy is    -0.0904 ev

!    total energy              =    -400.44434600 Ry
     estimated scf accuracy    <       0.00000002 Ry
     smearing contrib. (-TS)   =       0.00000000 Ry
     internal energy E=F+TS    =    -400.44434600 Ry

     The total energy is F=E-TS. E is the sum of the following terms:
     one-electron contribution =   -3720.76781078 Ry
     hartree contribution      =    1894.72129916 Ry
     xc contribution           =    -135.58218717 Ry
     ewald contribution        =    1561.18868177 Ry
     one-center paw contrib.   =      -0.00432898 Ry

     convergence has been achieved in  10 iterations

     Forces acting on atoms (cartesian axes, Ry/au):

     atom    1 type  1   force =    -0.00726288   -0.00419322   -0.01462613
     atom    2 type  1   force =    -0.04283302    0.02472966    0.17799741
     atom    3 type  1   force =    -0.00623574    0.00360021   -0.04997662
     atom    4 type  1   force =     0.00502327    0.00859563   -0.01591741
     atom    5 type  1   force =    -0.00496806    0.00867772    0.01587347
     atom    6 type  1   force =     0.00995567    0.00005247   -0.01591741
     atom    7 type  1   force =     0.00000000    0.00000000    0.01097858
     atom    8 type  1   force =     0.00726288   -0.00419322   -0.01462613
     atom    9 type  1   force =     0.00999915   -0.00003640    0.01587347
     atom   10 type  1   force =     0.00503110   -0.00864132    0.01587347
     atom   11 type  1   force =     0.00000000   -0.00833572    0.01459700
     atom   12 type  1   force =    -0.00502327    0.00859563   -0.01591741
     atom   13 type  1   force =    -0.00721894    0.00416786    0.01459700
     atom   14 type  1   force =     0.00000000    0.00000000   -0.01134447
     atom   15 type  1   force =    -0.00999915   -0.00003640    0.01587347
     atom   16 type  1   force =     0.00493240   -0.00864809   -0.01591741
     atom   17 type  1   force =    -0.00503110   -0.00864132    0.01587347
     atom   18 type  1   force =     0.00623574    0.00360021   -0.04997662
     atom   19 type  1   force =    -0.00000000    0.00838645   -0.01462613
     atom   20 type  1   force =     0.00000000   -0.00720041   -0.04997662
     atom   21 type  1   force =     0.00622391   -0.00359338    0.04994964
     atom   22 type  1   force =    -0.00622391   -0.00359338    0.04994964
     atom   23 type  1   force =     0.00496806    0.00867772    0.01587347
     atom   24 type  1   force =    -0.00000000    0.00718675    0.04994964
     atom   25 type  1   force =     0.04283302    0.02472966    0.17799741
     atom   26 type  1   force =     0.00000000    0.04924214   -0.17788881
     atom   27 type  1   force =    -0.00995567    0.00005247   -0.01591741
     atom   28 type  1   force =     0.00721894    0.00416786    0.01459700
     atom   29 type  1   force =    -0.00493240   -0.00864809   -0.01591741
     atom   30 type  1   force =    -0.04264495   -0.02462107   -0.17788881
     atom   31 type  1   force =     0.04264495   -0.02462107   -0.17788881
     atom   32 type  1   force =     0.00000000   -0.04945931    0.17799741
     atom   33 type  2   force =     0.02905448   -0.01677461   -0.00561358
     atom   34 type  2   force =     0.00000000    0.00000000    0.00470603
     atom   35 type  2   force =     0.00000000    0.00000000   -0.00453620
     atom   36 type  2   force =    -0.00015183    0.00008766   -0.00768298
     atom   37 type  2   force =     0.00413219   -0.00238572   -0.00540585
     atom   38 type  2   force =    -0.00019752    0.00152822    0.00489255
     atom   39 type  2   force =     0.00122472   -0.00093517    0.00489255
     atom   40 type  2   force =    -0.00020097   -0.00152119   -0.00491061
     atom   41 type  2   force =    -0.00142224   -0.00059305    0.00489255
     atom   42 type  2   force =     0.02901760    0.01675332    0.00558140
     atom   43 type  2   force =    -0.00000000    0.00019827    0.00777813
     atom   44 type  2   force =    -0.00141788    0.00058655   -0.00491061
     atom   45 type  2   force =     0.00000000   -0.00017532   -0.00768298
     atom   46 type  2   force =     0.00000000   -0.03350664    0.00558140
     atom   47 type  2   force =    -0.00121690    0.00093464   -0.00491061
     atom   48 type  2   force =     0.00000000   -0.00485390    0.00547972
     atom   49 type  2   force =    -0.02905448   -0.01677461   -0.00561358
     atom   50 type  2   force =    -0.02901760    0.01675332    0.00558140
     atom   51 type  2   force =     0.00121690    0.00093464   -0.00491061
     atom   52 type  2   force =    -0.00017171   -0.00009914    0.00777813
     atom   53 type  2   force =     0.00141788    0.00058655   -0.00491061
     atom   54 type  2   force =    -0.00420360    0.00242695    0.00547972
     atom   55 type  2   force =     0.00420360    0.00242695    0.00547972
     atom   56 type  2   force =    -0.00000000    0.03354922   -0.00561358
     atom   57 type  2   force =     0.00020097   -0.00152119   -0.00491061
     atom   58 type  2   force =     0.00019752    0.00152822    0.00489255
     atom   59 type  2   force =    -0.00000000    0.00477144   -0.00540585
     atom   60 type  2   force =    -0.00413219   -0.00238572   -0.00540585
     atom   61 type  2   force =     0.00142224   -0.00059305    0.00489255
     atom   62 type  2   force =    -0.00122472   -0.00093517    0.00489255
     atom   63 type  2   force =     0.00015183    0.00008766   -0.00768298
     atom   64 type  2   force =     0.00017171   -0.00009914    0.00777813

     Total force =     0.483764     Total SCF correction =     0.000165


     Computing stress (Cartesian axis) and pressure

          total   stress  (Ry/bohr**3)                   (kbar)     P=      -82.88
  -0.00052873   0.00000000   0.00000000          -77.78        0.00        0.00
   0.00000000  -0.00052873   0.00000000            0.00      -77.78        0.00
   0.00000000   0.00000000  -0.00063277            0.00        0.00      -93.08


     Writing all to output data dir /root/qe_scratch/pristine_C2H2.save/ :
     XML data file, charge density, pseudopotentials, collected wavefunctions
 
     init_run     :      5.45s CPU      7.04s WALL (       1 calls)
     electrons    :      6.19s CPU      7.51s WALL (       1 calls)
     forces       :      0.19s CPU      0.24s WALL (       1 calls)
     stress       :      0.16s CPU      0.18s WALL (       1 calls)

     Called by init_run:
     wfcinit      :      0.26s CPU      0.47s WALL (       1 calls)
     potinit      :      4.67s CPU      5.82s WALL (       1 calls)
     hinit0       :      0.31s CPU      0.40s WALL (       1 calls)

     Called by electrons:
     c_bands      :      1.63s CPU      1.67s WALL (      10 calls)
     sum_band     :      0.57s CPU      0.57s WALL (      10 calls)
     v_of_rho     :      0.84s CPU      1.15s WALL (      11 calls)
     newd         :      0.11s CPU      0.17s WALL (      11 calls)
                                        0.17s GPU  (      11 calls)
     PAW_pot      :      1.73s CPU      2.44s WALL (      11 calls)
     mix_rho      :      0.26s CPU      0.29s WALL (      10 calls)

     Called by c_bands:
     init_us_2    :      0.03s CPU      0.03s WALL (      21 calls)
     cegterg      :      1.58s CPU      1.61s WALL (      10 calls)

     Called by *egterg:
     cdiaghg      :      0.35s CPU      0.39s WALL (      49 calls)
                                        0.39s GPU  (      49 calls)
     h_psi        :      0.79s CPU      0.98s WALL (      50 calls)
                                        0.98s GPU  (      50 calls)
     s_psi        :      0.06s CPU      0.06s WALL (      50 calls)
     g_psi        :      0.00s CPU      0.00s WALL (      39 calls)
                                        0.00s GPU  (      39 calls)

     Called by h_psi:
     h_psi:calbec :      0.07s CPU      0.29s WALL (      50 calls)
                                        0.29s GPU  (      50 calls)
     vloc_psi     :      0.54s CPU      0.55s WALL (      50 calls)
                                        0.55s GPU  (      50 calls)
     add_vuspsi   :      0.08s CPU      0.13s WALL (      50 calls)
                                        0.13s GPU  (      50 calls)

     General routines
     calbec       :      0.07s CPU      0.25s WALL (      65 calls)
     fft          :      3.47s CPU      4.43s WALL (     149 calls)
                                        0.12s GPU  (     138 calls)
     ffts         :      1.93s CPU      2.32s WALL (      21 calls)
                                        0.00s GPU  (      10 calls)
     fftw         :      0.07s CPU      0.53s WALL (     460 calls)
                                        0.53s GPU  (     460 calls)
     interpolate  :      5.37s CPU      6.70s WALL (      11 calls)
 
     Parallel routines
 
     PWSCF        :     12.23s CPU     15.32s WALL

 
   This run was terminated on:   8:24:48   6May2026            

=------------------------------------------------------------------------------=
   JOB DONE.
=------------------------------------------------------------------------------=
Warning: ieee_invalid is signaling
Warning: ieee_divide_by_zero is signaling
Warning: ieee_underflow is signaling
Warning: ieee_inexact is signaling
FORTRAN STOP
