--------------------------------------------------------------------------
WARNING: Open MPI tried to bind a process but failed.  This is a
warning only; your job will continue, though performance may
be degraded.

  Local host:        3253031b5b37
  Application name:  /root/qe-7.3.1/bin/pw.x
  Error message:     failed to bind memory
  Location:          ../../../../../orte/mca/rtc/hwloc/rtc_hwloc.c:447

--------------------------------------------------------------------------

     Program PWSCF v.7.3.1 starts on  6May2026 at 10:49:37 

     This program is part of the open-source Quantum ESPRESSO suite
     for quantum simulation of materials; please cite
         "P. Giannozzi et al., J. Phys.:Condens. Matter 21 395502 (2009);
         "P. Giannozzi et al., J. Phys.:Condens. Matter 29 465901 (2017);
         "P. Giannozzi et al., J. Chem. Phys. 152 154105 (2020);
          URL http://www.quantum-espresso.org", 
     in publications or presentations arising from this work. More details at
     http://www.quantum-espresso.org/quote

     Parallel version (MPI & OpenMP), running on       8 processor cores
     Number of MPI processes:                 1
     Threads/MPI process:                     8

     MPI processes distributed on     1 nodes
     85367 MiB available memory on the printing compute node when the environment starts
 
     Reading input from pristine_V2CO2.in

     Current dimensions of program PWSCF are:
     Max number of different atomic species (ntypx) = 10
     Max number of k-points (npk) =  40000
     Max angular momentum in pseudopotentials (lmaxx) =  4
     file V.UPF: wavefunction(s)  3P 3D renormalized
 
     Subspace diagonalization in iterative solution of the eigenvalue problem:
     a serial algorithm will be used

 
     G-vector sticks info
     --------------------
     sticks:   dense  smooth     PW     G-vecs:    dense   smooth      PW
     Sum        5971    4009   1003               625303   340567   42465
 
     Using Slab Decomposition
 


     bravais-lattice index     =            0
     lattice parameter (alat)  =      21.9701  a.u.
     unit-cell volume          =   15337.4296 (a.u.)^3
     number of atoms/cell      =           80
     number of atomic types    =            3
     number of electrons       =       672.00
     number of Kohn-Sham states=          403
     kinetic-energy cutoff     =      30.0000  Ry
     charge density cutoff     =     180.0000  Ry
     scf convergence threshold =      1.0E-07
     mixing beta               =       0.4000
     number of iterations used =            8  plain     mixing
     Exchange-correlation= PBE
                           (   1   4   3   4   0   0   0)

     GPU acceleration is ACTIVE.  1 visible GPUs per MPI rank


     celldm(1)=  21.970122  celldm(2)=   0.000000  celldm(3)=   0.000000
     celldm(4)=   0.000000  celldm(5)=   0.000000  celldm(6)=   0.000000

     crystal axes: (cart. coord. in units of alat)
               a(1) = (   1.000000   0.000000   0.000000 )  
               a(2) = (  -0.500000   0.866025   0.000000 )  
               a(3) = (   0.000000   0.000000   1.670031 )  

     reciprocal axes: (cart. coord. in units 2 pi/alat)
               b(1) = (  1.000000  0.577350 -0.000000 )  
               b(2) = (  0.000000  1.154700  0.000000 )  
               b(3) = (  0.000000 -0.000000  0.598791 )  


     PseudoPot. # 1 for C  read from file:
     /root/qe_pseudos/C.UPF
     MD5 check sum: 9b35a7431356f8229172919cb1fa74b8
     Pseudo is Norm-conserving, Zval =  4.0
     Generated by new atomic code, or converted to UPF format
     Using radial grid of 1073 points,  1 beta functions with: 
                l(1) =   0

     PseudoPot. # 2 for O  read from file:
     /root/qe_pseudos/O.UPF
     MD5 check sum: c7f41d994d4e90c1781f5cd713c45011
     Pseudo is Projector augmented-wave + core cor, Zval =  6.0
     Generated using "atomic" code by A. Dal Corso (espresso distribution)
     Shape of augmentation charge: BESSEL
     Using radial grid of 1095 points,  4 beta functions with: 
                l(1) =   0
                l(2) =   0
                l(3) =   1
                l(4) =   1
     Q(r) pseudized with 0 coefficients 


     PseudoPot. # 3 for V  read from file:
     /root/qe_pseudos/V.UPF
     MD5 check sum: 79b3eb63147daf0b665d9f1bcc691206
     Pseudo is Ultrasoft + core correction, Zval = 13.0
     Generated using &quot;atomic&quot; code by A. Dal Corso  v.6.2.2
     Using radial grid of 1181 points,  6 beta functions with: 
                l(1) =   0
                l(2) =   0
                l(3) =   1
                l(4) =   1
                l(5) =   2
                l(6) =   2
     Q(r) pseudized with 0 coefficients 


     atomic species   valence    mass     pseudopotential
     C                 4.00    12.01100     C ( 1.00)
     O                 6.00    15.99900     O ( 1.00)
     V                13.00    50.94150     V ( 1.00)

     No symmetry found



   Cartesian axes

     site n.     atom                  positions (alat units)
         1        C      tau(   1) = (   0.1254431   0.6492719   0.8363565  )
         2        C      tau(   2) = (   0.1248678   0.2164443   0.8364099  )
         3        C      tau(   3) = (  -0.1254467   0.6492740   0.8363550  )
         4        C      tau(   4) = (   0.2514489  -0.0008613   0.8343678  )
         5        C      tau(   5) = (  -0.3749183   0.6497058   0.8354607  )
         6        C      tau(   6) = (   0.5000019   0.4330080   0.8355014  )
         7        C      tau(   7) = (   0.5000010   0.0004767   0.8363484  )
         8        C      tau(   8) = (   0.0000026   0.4347317   0.8343791  )
         9        C      tau(   9) = (  -0.2498023   0.4329871   0.8354467  )
        10        C      tau(  10) = (   0.7485538  -0.0008611   0.8343674  )
        11        C      tau(  11) = (   0.6251254   0.2163399   0.8354602  )
        12        C      tau(  12) = (  -0.1248668   0.2164383   0.8364102  )
        13        C      tau(  13) = (   0.3749206   0.6497036   0.8354610  )
        14        C      tau(  14) = (   0.2498022   0.4329863   0.8354592  )
        15        C      tau(  15) = (  -0.0000011   0.0001424   0.8364066  )
        16        C      tau(  16) = (   0.3748755   0.2163421   0.8354630  )
        17        O      tau(  17) = (   0.3742050   0.3603339   1.0251838  )
        18        O      tau(  18) = (   0.3750581   0.5052078   0.6461070  )
        19        O      tau(  19) = (  -0.0000018   0.5770360   1.0251223  )
        20        O      tau(  20) = (   0.1254115   0.5053977   0.6461018  )
        21        O      tau(  21) = (   0.8751406   0.0723018   0.6463269  )
        22        O      tau(  22) = (   0.2500375   0.5773622   1.0268470  )
        23        O      tau(  23) = (   0.0000043   0.7216287   0.6485126  )
        24        O      tau(  24) = (   0.4999985   0.7210174   0.6441659  )
        25        O      tau(  25) = (   0.7526872   0.1429886   1.0289254  )
        26        O      tau(  26) = (   0.2500570   0.7212091   0.6460661  )
        27        O      tau(  27) = (   0.6246584   0.0724866   0.6461001  )
        28        O      tau(  28) = (   0.4999978   0.2886869   0.6460728  )
        29        O      tau(  29) = (  -0.1253325   0.7939937   1.0250890  )
        30        O      tau(  30) = (   0.5000024   0.1443795   1.0268457  )
        31        O      tau(  31) = (   0.1225192   0.3592157   1.0289168  )
        32        O      tau(  32) = (  -0.1254124   0.5054000   0.6461025  )
        33        O      tau(  33) = (   0.6249392   0.5052093   0.6461047  )
        34        O      tau(  34) = (  -0.2500401   0.5773599   1.0268426  )
        35        O      tau(  35) = (   0.2505248   0.2889592   0.6441886  )
        36        O      tau(  36) = (   0.4999998   0.5783115   1.0251987  )
        37        O      tau(  37) = (  -0.3751870   0.7968208   1.0289252  )
        38        O      tau(  38) = (   0.0000055   0.2884683   0.6462941  )
        39        O      tau(  39) = (   0.1248621   0.0723017   0.6463263  )
        40        O      tau(  40) = (  -0.2500540   0.7212115   0.6460602  )
        41        O      tau(  41) = (   0.2473211   0.1429905   1.0289192  )
        42        O      tau(  42) = (   0.3753359   0.0724914   0.6460985  )
        43        O      tau(  43) = (   0.3751911   0.7968169   1.0289248  )
        44        O      tau(  44) = (   0.7494780   0.2889502   0.6441811  )
        45        O      tau(  45) = (   0.6258018   0.3603384   1.0251844  )
        46        O      tau(  46) = (   0.1253295   0.7939936   1.0250910  )
        47        O      tau(  47) = (   0.0000007   0.1444258   1.0314024  )
        48        O      tau(  48) = (  -0.1225191   0.3592168   1.0289118  )
        49        V      tau(  49) = (   0.5000014   0.7229287   0.9348849  )
        50        V      tau(  50) = (   0.7510593   0.1474843   0.7325380  )
        51        V      tau(  51) = (   0.7510989   0.2880695   0.9348844  )
        52        V      tau(  52) = (   0.8650921   0.0664528   0.9315243  )
        53        V      tau(  53) = (   0.6226634   0.5038438   0.9366295  )
        54        V      tau(  54) = (   0.5000057   0.5755040   0.7335201  )
        55        V      tau(  55) = (   0.6233988   0.3617582   0.7334843  )
        56        V      tau(  56) = (   0.3782546   0.7932222   0.7325345  )
        57        V      tau(  57) = (   0.0000051   0.1443337   0.7355045  )
        58        V      tau(  58) = (   0.4999690   0.1410154   0.7335708  )
        59        V      tau(  59) = (   0.1264359   0.7946895   0.7339659  )
        60        V      tau(  60) = (   0.1349078   0.0664568   0.9315283  )
        61        V      tau(  61) = (  -0.1271314   0.3583432   0.7325572  )
        62        V      tau(  62) = (   0.0000166   0.3000963   0.9315222  )
        63        V      tau(  63) = (  -0.2471090   0.5790218   0.7335270  )
        64        V      tau(  64) = (  -0.1276210   0.5063253   0.9390181  )
        65        V      tau(  65) = (  -0.3782719   0.7932044   0.7325385  )
        66        V      tau(  66) = (  -0.2503206   0.7187822   0.9390592  )
        67        V      tau(  67) = (   0.2488960   0.1475063   0.7325387  )
        68        V      tau(  68) = (   0.3773471   0.0738608   0.9390343  )
        69        V      tau(  69) = (   0.2503120   0.7187956   0.9390421  )
        70        V      tau(  70) = (   0.1271416   0.3583505   0.7325523  )
        71        V      tau(  71) = (   0.0000010   0.5757567   0.7339755  )
        72        V      tau(  72) = (   0.1276224   0.5063362   0.9390369  )
        73        V      tau(  73) = (  -0.1264427   0.7946923   0.7339662  )
        74        V      tau(  74) = (   0.0000031   0.7216578   0.9385867  )
        75        V      tau(  75) = (   0.6226681   0.0738553   0.9390222  )
        76        V      tau(  76) = (   0.3766178   0.3617770   0.7334919  )
        77        V      tau(  77) = (   0.5000208   0.2913610   0.9366383  )
        78        V      tau(  78) = (   0.2471133   0.5790095   0.7335432  )
        79        V      tau(  79) = (   0.3773264   0.5038369   0.9366518  )
        80        V      tau(  80) = (   0.2489339   0.2880539   0.9348877  )

     number of k points=     1  Methfessel-Paxton smearing, width (Ry)=  0.0100
                       cart. coord. in units 2pi/alat
        k(    1) = (   0.0000000   0.0000000   0.0000000), wk =   2.0000000

     Dense  grid:   625303 G-vectors     FFT dimensions: (  96,  96, 160)

     Smooth grid:   340567 G-vectors     FFT dimensions: (  80,  80, 128)

     Estimated max dynamical RAM per process >       3.80 GB

     Check: negative core charge=   -0.000042

     Initial potential from superposition of free atoms

     starting charge     663.9712, renormalised to     672.0000

     negative rho (up, down):  4.644E-01 0.000E+00
     Starting wfcs are  576 randomized atomic wfcs
     Checking if some PAW data can be deallocated... 

     total cpu time spent up to now is       12.5 secs

     Self-consistent Calculation

     iteration #  1     ecut=    30.00 Ry     beta= 0.40
     Davidson diagonalization with overlap
     ethr =  1.00E-02,  avg # of iterations =  2.0

     negative rho (up, down):  4.675E-01 0.000E+00

     total cpu time spent up to now is       18.8 secs

     total energy              =   -6148.64045170 Ry
     estimated scf accuracy    <      58.06565722 Ry

     iteration #  2     ecut=    30.00 Ry     beta= 0.40
     Davidson diagonalization with overlap
     ethr =  8.64E-03,  avg # of iterations =  4.0

     negative rho (up, down):  4.952E-01 0.000E+00

     total cpu time spent up to now is       25.3 secs

     total energy              =   -6142.49685373 Ry
     estimated scf accuracy    <     114.69487022 Ry

     iteration #  3     ecut=    30.00 Ry     beta= 0.40
     Davidson diagonalization with overlap
     ethr =  8.64E-03,  avg # of iterations =  6.0

     negative rho (up, down):  5.304E-01 0.000E+00

     total cpu time spent up to now is       32.3 secs

     total energy              =   -6145.84163535 Ry
     estimated scf accuracy    <     563.63112068 Ry

     iteration #  4     ecut=    30.00 Ry     beta= 0.40
     Davidson diagonalization with overlap
     ethr =  8.64E-03,  avg # of iterations =  3.0

     negative rho (up, down):  5.223E-01 0.000E+00

     total cpu time spent up to now is       38.5 secs

     total energy              =   -6166.05494615 Ry
     estimated scf accuracy    <      24.02533636 Ry

     iteration #  5     ecut=    30.00 Ry     beta= 0.40
     Davidson diagonalization with overlap
     ethr =  3.58E-03,  avg # of iterations =  5.0

     negative rho (up, down):  5.178E-01 0.000E+00

     total cpu time spent up to now is       44.8 secs

     total energy              =   -6166.82413827 Ry
     estimated scf accuracy    <      21.47638223 Ry

     iteration #  6     ecut=    30.00 Ry     beta= 0.40
     Davidson diagonalization with overlap
     ethr =  3.20E-03,  avg # of iterations =  2.0

     negative rho (up, down):  5.193E-01 0.000E+00

     total cpu time spent up to now is       50.8 secs

     total energy              =   -6167.40456691 Ry
     estimated scf accuracy    <       5.77936920 Ry

     iteration #  7     ecut=    30.00 Ry     beta= 0.40
     Davidson diagonalization with overlap
     ethr =  8.60E-04,  avg # of iterations =  9.0

     negative rho (up, down):  5.191E-01 0.000E+00

     total cpu time spent up to now is       57.1 secs

     total energy              =   -6167.66490268 Ry
     estimated scf accuracy    <       3.78388057 Ry

     iteration #  8     ecut=    30.00 Ry     beta= 0.40
     Davidson diagonalization with overlap
     ethr =  5.63E-04,  avg # of iterations =  2.0
     Minimization algorithm failed to find Fermi energy: reverting to bisection
     Possible cause: smearing is larger than the electronic band-gap.

     negative rho (up, down):  5.217E-01 0.000E+00

     total cpu time spent up to now is       63.1 secs

     total energy              =   -6167.61386660 Ry
     estimated scf accuracy    <       1.90513188 Ry

     iteration #  9     ecut=    30.00 Ry     beta= 0.40
     Davidson diagonalization with overlap
     ethr =  2.84E-04,  avg # of iterations =  2.0

     negative rho (up, down):  5.256E-01 0.000E+00

     total cpu time spent up to now is       69.1 secs

     total energy              =   -6167.53813542 Ry
     estimated scf accuracy    <       1.52828372 Ry

     iteration # 10     ecut=    30.00 Ry     beta= 0.40
     Davidson diagonalization with overlap
     ethr =  2.27E-04,  avg # of iterations =  2.0

     negative rho (up, down):  5.309E-01 0.000E+00

     total cpu time spent up to now is       75.1 secs

     total energy              =   -6167.49083176 Ry
     estimated scf accuracy    <       2.05470230 Ry

     iteration # 11     ecut=    30.00 Ry     beta= 0.40
     Davidson diagonalization with overlap
     ethr =  2.27E-04,  avg # of iterations =  2.0

     negative rho (up, down):  5.351E-01 0.000E+00

     total cpu time spent up to now is       81.2 secs

     total energy              =   -6167.55397363 Ry
     estimated scf accuracy    <       0.49372292 Ry

     iteration # 12     ecut=    30.00 Ry     beta= 0.40
     Davidson diagonalization with overlap
     ethr =  7.35E-05,  avg # of iterations = 11.0

     negative rho (up, down):  5.333E-01 0.000E+00

     total cpu time spent up to now is       88.5 secs

     total energy              =   -6167.54806601 Ry
     estimated scf accuracy    <       1.72288212 Ry

     iteration # 13     ecut=    30.00 Ry     beta= 0.40
     Davidson diagonalization with overlap
     ethr =  7.35E-05,  avg # of iterations =  2.0

     negative rho (up, down):  5.326E-01 0.000E+00

     total cpu time spent up to now is       94.5 secs

     total energy              =   -6167.57705633 Ry
     estimated scf accuracy    <       0.70190691 Ry

     iteration # 14     ecut=    30.00 Ry     beta= 0.40
     Davidson diagonalization with overlap
     ethr =  7.35E-05,  avg # of iterations =  1.0

     negative rho (up, down):  5.327E-01 0.000E+00

     total cpu time spent up to now is      100.4 secs

     total energy              =   -6167.60516131 Ry
     estimated scf accuracy    <       0.23745222 Ry

     iteration # 15     ecut=    30.00 Ry     beta= 0.40
     Davidson diagonalization with overlap
     ethr =  3.53E-05,  avg # of iterations =  2.0

     negative rho (up, down):  5.330E-01 0.000E+00

     total cpu time spent up to now is      106.4 secs

     total energy              =   -6167.61397173 Ry
     estimated scf accuracy    <       0.10128415 Ry

     iteration # 16     ecut=    30.00 Ry     beta= 0.40
     Davidson diagonalization with overlap
     ethr =  1.51E-05,  avg # of iterations =  2.0

     negative rho (up, down):  5.330E-01 0.000E+00

     total cpu time spent up to now is      112.5 secs

     total energy              =   -6167.61484729 Ry
     estimated scf accuracy    <       0.19978177 Ry

     iteration # 17     ecut=    30.00 Ry     beta= 0.40
     Davidson diagonalization with overlap
     ethr =  1.51E-05,  avg # of iterations = 18.0

     negative rho (up, down):  5.336E-01 0.000E+00

     total cpu time spent up to now is      119.6 secs

     total energy              =   -6167.62357651 Ry
     estimated scf accuracy    <       0.07491347 Ry

     iteration # 18     ecut=    30.00 Ry     beta= 0.40
     Davidson diagonalization with overlap
     ethr =  1.11E-05,  avg # of iterations = 13.0

     negative rho (up, down):  5.328E-01 0.000E+00

     total cpu time spent up to now is      126.6 secs

     total energy              =   -6167.62257023 Ry
     estimated scf accuracy    <       0.11192317 Ry

     iteration # 19     ecut=    30.00 Ry     beta= 0.40
     Davidson diagonalization with overlap
     ethr =  1.11E-05,  avg # of iterations =  2.0

     negative rho (up, down):  5.325E-01 0.000E+00

     total cpu time spent up to now is      132.7 secs

     total energy              =   -6167.62567076 Ry
     estimated scf accuracy    <       0.04032401 Ry

     iteration # 20     ecut=    30.00 Ry     beta= 0.40
     Davidson diagonalization with overlap
     ethr =  6.00E-06,  avg # of iterations = 18.0

     negative rho (up, down):  5.323E-01 0.000E+00

     total cpu time spent up to now is      139.9 secs

     total energy              =   -6167.62552179 Ry
     estimated scf accuracy    <       0.06590175 Ry

     iteration # 21     ecut=    30.00 Ry     beta= 0.40
     Davidson diagonalization with overlap
     ethr =  6.00E-06,  avg # of iterations =  2.0

     negative rho (up, down):  5.322E-01 0.000E+00

     total cpu time spent up to now is      146.0 secs

     total energy              =   -6167.62665801 Ry
     estimated scf accuracy    <       0.03448663 Ry

     iteration # 22     ecut=    30.00 Ry     beta= 0.40
     Davidson diagonalization with overlap
     ethr =  5.13E-06,  avg # of iterations =  1.0

     negative rho (up, down):  5.321E-01 0.000E+00

     total cpu time spent up to now is      151.9 secs

     total energy              =   -6167.62771392 Ry
     estimated scf accuracy    <       0.01258027 Ry

     iteration # 23     ecut=    30.00 Ry     beta= 0.40
     Davidson diagonalization with overlap
     ethr =  1.87E-06,  avg # of iterations = 19.0

     negative rho (up, down):  5.321E-01 0.000E+00

     total cpu time spent up to now is      159.4 secs

     total energy              =   -6167.62802618 Ry
     estimated scf accuracy    <       0.02894613 Ry

     iteration # 24     ecut=    30.00 Ry     beta= 0.40
     Davidson diagonalization with overlap
     ethr =  1.87E-06,  avg # of iterations =  2.0

     negative rho (up, down):  5.319E-01 0.000E+00

     total cpu time spent up to now is      165.3 secs

     total energy              =   -6167.62877546 Ry
     estimated scf accuracy    <       0.00567289 Ry

     iteration # 25     ecut=    30.00 Ry     beta= 0.40
     Davidson diagonalization with overlap
     ethr =  8.44E-07,  avg # of iterations =  2.0

     negative rho (up, down):  5.316E-01 0.000E+00

     total cpu time spent up to now is      171.4 secs

     total energy              =   -6167.62884193 Ry
     estimated scf accuracy    <       0.01051123 Ry

     iteration # 26     ecut=    30.00 Ry     beta= 0.40
     Davidson diagonalization with overlap
     ethr =  8.44E-07,  avg # of iterations =  6.0

     negative rho (up, down):  5.315E-01 0.000E+00

     total cpu time spent up to now is      177.8 secs

     total energy              =   -6167.62893495 Ry
     estimated scf accuracy    <       0.01063711 Ry

     iteration # 27     ecut=    30.00 Ry     beta= 0.40
     Davidson diagonalization with overlap
     ethr =  8.44E-07,  avg # of iterations =  2.0

     negative rho (up, down):  5.314E-01 0.000E+00

     total cpu time spent up to now is      183.8 secs

     total energy              =   -6167.62932640 Ry
     estimated scf accuracy    <       0.00526525 Ry

     iteration # 28     ecut=    30.00 Ry     beta= 0.40
     Davidson diagonalization with overlap
     ethr =  7.84E-07,  avg # of iterations =  1.0

     negative rho (up, down):  5.312E-01 0.000E+00

     total cpu time spent up to now is      189.6 secs

     total energy              =   -6167.62965396 Ry
     estimated scf accuracy    <       0.00066040 Ry

     iteration # 29     ecut=    30.00 Ry     beta= 0.40
     Davidson diagonalization with overlap
     ethr =  9.83E-08,  avg # of iterations =  6.0

     negative rho (up, down):  5.312E-01 0.000E+00

     total cpu time spent up to now is      196.0 secs

     total energy              =   -6167.62975981 Ry
     estimated scf accuracy    <       0.00099875 Ry

     iteration # 30     ecut=    30.00 Ry     beta= 0.40
     Davidson diagonalization with overlap
     ethr =  9.83E-08,  avg # of iterations =  2.0

     negative rho (up, down):  5.312E-01 0.000E+00

     total cpu time spent up to now is      202.0 secs

     total energy              =   -6167.62980176 Ry
     estimated scf accuracy    <       0.00091053 Ry

     iteration # 31     ecut=    30.00 Ry     beta= 0.40
     Davidson diagonalization with overlap
     ethr =  9.83E-08,  avg # of iterations =  3.0

     negative rho (up, down):  5.314E-01 0.000E+00

     total cpu time spent up to now is      208.2 secs

     total energy              =   -6167.62983773 Ry
     estimated scf accuracy    <       0.00068599 Ry

     iteration # 32     ecut=    30.00 Ry     beta= 0.40
     Davidson diagonalization with overlap
     ethr =  9.83E-08,  avg # of iterations =  3.0

     negative rho (up, down):  5.314E-01 0.000E+00

     total cpu time spent up to now is      214.4 secs

     total energy              =   -6167.62994513 Ry
     estimated scf accuracy    <       0.00115193 Ry

     iteration # 33     ecut=    30.00 Ry     beta= 0.40
     Davidson diagonalization with overlap
     ethr =  9.83E-08,  avg # of iterations =  2.0

     negative rho (up, down):  5.315E-01 0.000E+00

     total cpu time spent up to now is      220.5 secs

     total energy              =   -6167.63004553 Ry
     estimated scf accuracy    <       0.00008251 Ry

     iteration # 34     ecut=    30.00 Ry     beta= 0.40
     Davidson diagonalization with overlap
     ethr =  1.23E-08,  avg # of iterations =  6.0

     negative rho (up, down):  5.318E-01 0.000E+00

     total cpu time spent up to now is      227.1 secs

     total energy              =   -6167.63011604 Ry
     estimated scf accuracy    <       0.00015050 Ry

     iteration # 35     ecut=    30.00 Ry     beta= 0.40
     Davidson diagonalization with overlap
     ethr =  1.23E-08,  avg # of iterations =  3.0

     negative rho (up, down):  5.321E-01 0.000E+00

     total cpu time spent up to now is      233.3 secs

     total energy              =   -6167.63014265 Ry
     estimated scf accuracy    <       0.00039149 Ry

     iteration # 36     ecut=    30.00 Ry     beta= 0.40
     Davidson diagonalization with overlap
     ethr =  1.23E-08,  avg # of iterations =  5.0

     negative rho (up, down):  5.325E-01 0.000E+00

     total cpu time spent up to now is      239.7 secs

     total energy              =   -6167.63017670 Ry
     estimated scf accuracy    <       0.00019004 Ry

     iteration # 37     ecut=    30.00 Ry     beta= 0.40
     Davidson diagonalization with overlap
     ethr =  1.23E-08,  avg # of iterations =  3.0

     negative rho (up, down):  5.331E-01 0.000E+00

     total cpu time spent up to now is      245.9 secs

     total energy              =   -6167.63016211 Ry
     estimated scf accuracy    <       0.00015532 Ry

     iteration # 38     ecut=    30.00 Ry     beta= 0.40
     Davidson diagonalization with overlap
     ethr =  1.23E-08,  avg # of iterations =  3.0

     negative rho (up, down):  5.335E-01 0.000E+00

     total cpu time spent up to now is      252.1 secs

     total energy              =   -6167.63021621 Ry
     estimated scf accuracy    <       0.00005454 Ry

     iteration # 39     ecut=    30.00 Ry     beta= 0.40
     Davidson diagonalization with overlap
     ethr =  8.12E-09,  avg # of iterations =  6.0

     negative rho (up, down):  5.340E-01 0.000E+00

     total cpu time spent up to now is      258.5 secs

     total energy              =   -6167.63022862 Ry
     estimated scf accuracy    <       0.00005708 Ry

     iteration # 40     ecut=    30.00 Ry     beta= 0.40
     Davidson diagonalization with overlap
     ethr =  8.12E-09,  avg # of iterations =  3.0

     negative rho (up, down):  5.346E-01 0.000E+00

     total cpu time spent up to now is      264.6 secs

     total energy              =   -6167.63022067 Ry
     estimated scf accuracy    <       0.00006763 Ry

     iteration # 41     ecut=    30.00 Ry     beta= 0.40
     Davidson diagonalization with overlap
     ethr =  8.12E-09,  avg # of iterations =  3.0

     negative rho (up, down):  5.352E-01 0.000E+00

     total cpu time spent up to now is      270.9 secs

     total energy              =   -6167.63021572 Ry
     estimated scf accuracy    <       0.00009392 Ry

     iteration # 42     ecut=    30.00 Ry     beta= 0.40
     Davidson diagonalization with overlap
     ethr =  8.12E-09,  avg # of iterations =  3.0

     negative rho (up, down):  5.355E-01 0.000E+00

     total cpu time spent up to now is      277.1 secs

     total energy              =   -6167.63030071 Ry
     estimated scf accuracy    <       0.00007790 Ry

     iteration # 43     ecut=    30.00 Ry     beta= 0.40
     Davidson diagonalization with overlap
     ethr =  8.12E-09,  avg # of iterations =  6.0

     negative rho (up, down):  5.362E-01 0.000E+00

     total cpu time spent up to now is      283.7 secs

     total energy              =   -6167.63030009 Ry
     estimated scf accuracy    <       0.00011408 Ry

     iteration # 44     ecut=    30.00 Ry     beta= 0.40
     Davidson diagonalization with overlap
     ethr =  8.12E-09,  avg # of iterations =  6.0

     negative rho (up, down):  5.368E-01 0.000E+00

     total cpu time spent up to now is      290.1 secs

     total energy              =   -6167.63027056 Ry
     estimated scf accuracy    <       0.00033524 Ry

     iteration # 45     ecut=    30.00 Ry     beta= 0.40
     Davidson diagonalization with overlap
     ethr =  8.12E-09,  avg # of iterations =  6.0

     negative rho (up, down):  5.375E-01 0.000E+00

     total cpu time spent up to now is      296.5 secs

     total energy              =   -6167.63026770 Ry
     estimated scf accuracy    <       0.00064869 Ry

     iteration # 46     ecut=    30.00 Ry     beta= 0.40
     Davidson diagonalization with overlap
     ethr =  8.12E-09,  avg # of iterations =  6.0

     negative rho (up, down):  5.380E-01 0.000E+00

     total cpu time spent up to now is      303.0 secs

     total energy              =   -6167.63028344 Ry
     estimated scf accuracy    <       0.00064249 Ry

     iteration # 47     ecut=    30.00 Ry     beta= 0.40
     Davidson diagonalization with overlap
     ethr =  8.12E-09,  avg # of iterations =  6.0

     negative rho (up, down):  5.387E-01 0.000E+00

     total cpu time spent up to now is      309.6 secs

     total energy              =   -6167.63030398 Ry
     estimated scf accuracy    <       0.00041811 Ry

     iteration # 48     ecut=    30.00 Ry     beta= 0.40
     Davidson diagonalization with overlap
     ethr =  8.12E-09,  avg # of iterations =  3.0

     negative rho (up, down):  5.396E-01 0.000E+00

     total cpu time spent up to now is      315.8 secs

     total energy              =   -6167.63023062 Ry
     estimated scf accuracy    <       0.00010913 Ry

     iteration # 49     ecut=    30.00 Ry     beta= 0.40
     Davidson diagonalization with overlap
     ethr =  8.12E-09,  avg # of iterations =  7.0

     negative rho (up, down):  5.408E-01 0.000E+00

     total cpu time spent up to now is      322.5 secs

     total energy              =   -6167.63001143 Ry
     estimated scf accuracy    <       0.00156154 Ry

     iteration # 50     ecut=    30.00 Ry     beta= 0.40
     Davidson diagonalization with overlap
     ethr =  8.12E-09,  avg # of iterations =  6.0

     negative rho (up, down):  5.417E-01 0.000E+00

     total cpu time spent up to now is      329.2 secs

     total energy              =   -6167.62996356 Ry
     estimated scf accuracy    <       0.00093388 Ry

     iteration # 51     ecut=    30.00 Ry     beta= 0.40
     Davidson diagonalization with overlap
     ethr =  8.12E-09,  avg # of iterations =  6.0

     negative rho (up, down):  5.410E-01 0.000E+00

     total cpu time spent up to now is      335.6 secs

     total energy              =   -6167.63034362 Ry
     estimated scf accuracy    <       0.00029866 Ry

     iteration # 52     ecut=    30.00 Ry     beta= 0.40
     Davidson diagonalization with overlap
     ethr =  8.12E-09,  avg # of iterations =  6.0

     negative rho (up, down):  5.413E-01 0.000E+00

     total cpu time spent up to now is      342.1 secs

     total energy              =   -6167.63040478 Ry
     estimated scf accuracy    <       0.00058583 Ry

     iteration # 53     ecut=    30.00 Ry     beta= 0.40
     Davidson diagonalization with overlap
     ethr =  8.12E-09,  avg # of iterations =  6.0

     negative rho (up, down):  5.417E-01 0.000E+00

     total cpu time spent up to now is      348.7 secs

     total energy              =   -6167.63046300 Ry
     estimated scf accuracy    <       0.00062411 Ry

     iteration # 54     ecut=    30.00 Ry     beta= 0.40
     Davidson diagonalization with overlap
     ethr =  8.12E-09,  avg # of iterations =  6.0

     negative rho (up, down):  5.422E-01 0.000E+00

     total cpu time spent up to now is      355.3 secs

     total energy              =   -6167.63048002 Ry
     estimated scf accuracy    <       0.00108739 Ry

     iteration # 55     ecut=    30.00 Ry     beta= 0.40
     Davidson diagonalization with overlap
     ethr =  8.12E-09,  avg # of iterations =  6.0

     negative rho (up, down):  5.426E-01 0.000E+00

     total cpu time spent up to now is      362.0 secs

     total energy              =   -6167.63054471 Ry
     estimated scf accuracy    <       0.00058681 Ry

     iteration # 56     ecut=    30.00 Ry     beta= 0.40
     Davidson diagonalization with overlap
     ethr =  8.12E-09,  avg # of iterations =  6.0

     negative rho (up, down):  5.429E-01 0.000E+00

     total cpu time spent up to now is      368.5 secs

     total energy              =   -6167.63064041 Ry
     estimated scf accuracy    <       0.00027690 Ry

     iteration # 57     ecut=    30.00 Ry     beta= 0.40
     Davidson diagonalization with overlap
     ethr =  8.12E-09,  avg # of iterations =  6.0

     negative rho (up, down):  5.433E-01 0.000E+00

     total cpu time spent up to now is      374.8 secs

     total energy              =   -6167.63070594 Ry
     estimated scf accuracy    <       0.00039107 Ry

     iteration # 58     ecut=    30.00 Ry     beta= 0.40
     Davidson diagonalization with overlap
     ethr =  8.12E-09,  avg # of iterations =  6.0

     negative rho (up, down):  5.436E-01 0.000E+00

     total cpu time spent up to now is      381.5 secs

     total energy              =   -6167.63078507 Ry
     estimated scf accuracy    <       0.00035283 Ry

     iteration # 59     ecut=    30.00 Ry     beta= 0.40
     Davidson diagonalization with overlap
     ethr =  8.12E-09,  avg # of iterations =  5.0

     negative rho (up, down):  5.440E-01 0.000E+00

     total cpu time spent up to now is      387.9 secs

     total energy              =   -6167.63082439 Ry
     estimated scf accuracy    <       0.00004722 Ry

     iteration # 60     ecut=    30.00 Ry     beta= 0.40
     Davidson diagonalization with overlap
     ethr =  7.03E-09,  avg # of iterations =  3.0

     negative rho (up, down):  5.446E-01 0.000E+00

     total cpu time spent up to now is      394.0 secs

     total energy              =   -6167.63081719 Ry
     estimated scf accuracy    <       0.00011398 Ry

     iteration # 61     ecut=    30.00 Ry     beta= 0.40
     Davidson diagonalization with overlap
     ethr =  7.03E-09,  avg # of iterations =  6.0

     negative rho (up, down):  5.451E-01 0.000E+00

     total cpu time spent up to now is      400.3 secs

     total energy              =   -6167.63083046 Ry
     estimated scf accuracy    <       0.00014847 Ry

     iteration # 62     ecut=    30.00 Ry     beta= 0.40
     Davidson diagonalization with overlap
     ethr =  7.03E-09,  avg # of iterations =  3.0

     negative rho (up, down):  5.455E-01 0.000E+00

     total cpu time spent up to now is      406.5 secs

     total energy              =   -6167.63084445 Ry
     estimated scf accuracy    <       0.00010896 Ry

     iteration # 63     ecut=    30.00 Ry     beta= 0.40
     Davidson diagonalization with overlap
     ethr =  7.03E-09,  avg # of iterations =  3.0

     negative rho (up, down):  5.460E-01 0.000E+00

     total cpu time spent up to now is      412.7 secs

     total energy              =   -6167.63085579 Ry
     estimated scf accuracy    <       0.00003384 Ry

     iteration # 64     ecut=    30.00 Ry     beta= 0.40
     Davidson diagonalization with overlap
     ethr =  5.04E-09,  avg # of iterations =  3.0

     negative rho (up, down):  5.465E-01 0.000E+00

     total cpu time spent up to now is      418.9 secs

     total energy              =   -6167.63086323 Ry
     estimated scf accuracy    <       0.00002612 Ry

     iteration # 65     ecut=    30.00 Ry     beta= 0.40
     Davidson diagonalization with overlap
     ethr =  3.89E-09,  avg # of iterations =  3.0

     negative rho (up, down):  5.469E-01 0.000E+00

     total cpu time spent up to now is      425.1 secs

     total energy              =   -6167.63086504 Ry
     estimated scf accuracy    <       0.00002720 Ry

     iteration # 66     ecut=    30.00 Ry     beta= 0.40
     Davidson diagonalization with overlap
     ethr =  3.89E-09,  avg # of iterations =  3.0

     negative rho (up, down):  5.474E-01 0.000E+00

     total cpu time spent up to now is      431.3 secs

     total energy              =   -6167.63085739 Ry
     estimated scf accuracy    <       0.00000946 Ry

     iteration # 67     ecut=    30.00 Ry     beta= 0.40
     Davidson diagonalization with overlap
     ethr =  1.41E-09,  avg # of iterations =  6.0

     negative rho (up, down):  5.480E-01 0.000E+00

     total cpu time spent up to now is      437.8 secs

     total energy              =   -6167.63084445 Ry
     estimated scf accuracy    <       0.00001752 Ry

     iteration # 68     ecut=    30.00 Ry     beta= 0.40
     Davidson diagonalization with overlap
     ethr =  1.41E-09,  avg # of iterations =  5.0

     negative rho (up, down):  5.483E-01 0.000E+00

     total cpu time spent up to now is      444.3 secs

     total energy              =   -6167.63086935 Ry
     estimated scf accuracy    <       0.00005436 Ry

     iteration # 69     ecut=    30.00 Ry     beta= 0.40
     Davidson diagonalization with overlap
     ethr =  1.41E-09,  avg # of iterations =  7.0

     negative rho (up, down):  5.487E-01 0.000E+00

     total cpu time spent up to now is      451.3 secs

     total energy              =   -6167.63086110 Ry
     estimated scf accuracy    <       0.00057607 Ry

     iteration # 70     ecut=    30.00 Ry     beta= 0.40
     Davidson diagonalization with overlap
     ethr =  1.41E-09,  avg # of iterations =  6.0

     negative rho (up, down):  5.492E-01 0.000E+00

     total cpu time spent up to now is      458.1 secs

     total energy              =   -6167.63087444 Ry
     estimated scf accuracy    <       0.00006569 Ry

     iteration # 71     ecut=    30.00 Ry     beta= 0.40
     Davidson diagonalization with overlap
     ethr =  1.41E-09,  avg # of iterations =  6.0

     negative rho (up, down):  5.496E-01 0.000E+00

     total cpu time spent up to now is      464.7 secs

     total energy              =   -6167.63087752 Ry
     estimated scf accuracy    <       0.00003688 Ry

     iteration # 72     ecut=    30.00 Ry     beta= 0.40
     Davidson diagonalization with overlap
     ethr =  1.41E-09,  avg # of iterations =  6.0

     negative rho (up, down):  5.499E-01 0.000E+00

     total cpu time spent up to now is      471.2 secs

     total energy              =   -6167.63088479 Ry
     estimated scf accuracy    <       0.00002226 Ry

     iteration # 73     ecut=    30.00 Ry     beta= 0.40
     Davidson diagonalization with overlap
     ethr =  1.41E-09,  avg # of iterations =  3.0

     negative rho (up, down):  5.503E-01 0.000E+00

     total cpu time spent up to now is      477.4 secs

     total energy              =   -6167.63089117 Ry
     estimated scf accuracy    <       0.00002726 Ry

     iteration # 74     ecut=    30.00 Ry     beta= 0.40
     Davidson diagonalization with overlap
     ethr =  1.41E-09,  avg # of iterations =  3.0

     negative rho (up, down):  5.507E-01 0.000E+00

     total cpu time spent up to now is      483.7 secs

     total energy              =   -6167.63088849 Ry
     estimated scf accuracy    <       0.00002887 Ry

     iteration # 75     ecut=    30.00 Ry     beta= 0.40
     Davidson diagonalization with overlap
     ethr =  1.41E-09,  avg # of iterations =  6.0

     negative rho (up, down):  5.510E-01 0.000E+00

     total cpu time spent up to now is      490.2 secs

     total energy              =   -6167.63089363 Ry
     estimated scf accuracy    <       0.00003704 Ry

     iteration # 76     ecut=    30.00 Ry     beta= 0.40
     Davidson diagonalization with overlap
     ethr =  1.41E-09,  avg # of iterations =  9.0

     negative rho (up, down):  5.514E-01 0.000E+00

     total cpu time spent up to now is      497.4 secs

     total energy              =   -6167.63087532 Ry
     estimated scf accuracy    <       0.00087431 Ry

     iteration # 77     ecut=    30.00 Ry     beta= 0.40
     Davidson diagonalization with overlap
     ethr =  1.41E-09,  avg # of iterations =  7.0

     negative rho (up, down):  5.518E-01 0.000E+00

     total cpu time spent up to now is      504.4 secs

     total energy              =   -6167.63089222 Ry
     estimated scf accuracy    <       0.00001159 Ry

     iteration # 78     ecut=    30.00 Ry     beta= 0.40
     Davidson diagonalization with overlap
     ethr =  1.41E-09,  avg # of iterations =  3.0

     negative rho (up, down):  5.521E-01 0.000E+00

     total cpu time spent up to now is      510.6 secs

     total energy              =   -6167.63090041 Ry
     estimated scf accuracy    <       0.00002959 Ry

     iteration # 79     ecut=    30.00 Ry     beta= 0.40
     Davidson diagonalization with overlap
     ethr =  1.41E-09,  avg # of iterations =  6.0

     negative rho (up, down):  5.524E-01 0.000E+00

     total cpu time spent up to now is      517.2 secs

     total energy              =   -6167.63090323 Ry
     estimated scf accuracy    <       0.00005049 Ry

     iteration # 80     ecut=    30.00 Ry     beta= 0.40
     Davidson diagonalization with overlap
     ethr =  1.41E-09,  avg # of iterations =  6.0

     negative rho (up, down):  5.527E-01 0.000E+00

     total cpu time spent up to now is      523.6 secs

     total energy              =   -6167.63090994 Ry
     estimated scf accuracy    <       0.00008046 Ry

     iteration # 81     ecut=    30.00 Ry     beta= 0.40
     Davidson diagonalization with overlap
     ethr =  1.41E-09,  avg # of iterations =  3.0

     negative rho (up, down):  5.530E-01 0.000E+00

     total cpu time spent up to now is      529.8 secs

     total energy              =   -6167.63090596 Ry
     estimated scf accuracy    <       0.00001959 Ry

     iteration # 82     ecut=    30.00 Ry     beta= 0.40
     Davidson diagonalization with overlap
     ethr =  1.41E-09,  avg # of iterations =  3.0

     negative rho (up, down):  5.533E-01 0.000E+00

     total cpu time spent up to now is      536.0 secs

     total energy              =   -6167.63091021 Ry
     estimated scf accuracy    <       0.00002198 Ry

     iteration # 83     ecut=    30.00 Ry     beta= 0.40
     Davidson diagonalization with overlap
     ethr =  1.41E-09,  avg # of iterations =  3.0

     negative rho (up, down):  5.536E-01 0.000E+00

     total cpu time spent up to now is      542.1 secs

     total energy              =   -6167.63092122 Ry
     estimated scf accuracy    <       0.00001034 Ry

     iteration # 84     ecut=    30.00 Ry     beta= 0.40
     Davidson diagonalization with overlap
     ethr =  1.41E-09,  avg # of iterations =  3.0

     negative rho (up, down):  5.539E-01 0.000E+00

     total cpu time spent up to now is      548.3 secs

     total energy              =   -6167.63091275 Ry
     estimated scf accuracy    <       0.00001225 Ry

     iteration # 85     ecut=    30.00 Ry     beta= 0.40
     Davidson diagonalization with overlap
     ethr =  1.41E-09,  avg # of iterations =  3.0

     negative rho (up, down):  5.541E-01 0.000E+00

     total cpu time spent up to now is      554.5 secs

     total energy              =   -6167.63092867 Ry
     estimated scf accuracy    <       0.00003913 Ry

     iteration # 86     ecut=    30.00 Ry     beta= 0.40
     Davidson diagonalization with overlap
     ethr =  1.41E-09,  avg # of iterations =  3.0

     negative rho (up, down):  5.543E-01 0.000E+00

     total cpu time spent up to now is      560.8 secs

     total energy              =   -6167.63092687 Ry
     estimated scf accuracy    <       0.00003261 Ry

     iteration # 87     ecut=    30.00 Ry     beta= 0.40
     Davidson diagonalization with overlap
     ethr =  1.41E-09,  avg # of iterations =  3.0

     negative rho (up, down):  5.546E-01 0.000E+00

     total cpu time spent up to now is      566.9 secs

     total energy              =   -6167.63092684 Ry
     estimated scf accuracy    <       0.00000800 Ry

     iteration # 88     ecut=    30.00 Ry     beta= 0.40
     Davidson diagonalization with overlap
     ethr =  1.19E-09,  avg # of iterations =  6.0

     negative rho (up, down):  5.548E-01 0.000E+00

     total cpu time spent up to now is      573.4 secs

     total energy              =   -6167.63092756 Ry
     estimated scf accuracy    <       0.00015203 Ry

     iteration # 89     ecut=    30.00 Ry     beta= 0.40
     Davidson diagonalization with overlap
     ethr =  1.19E-09,  avg # of iterations =  6.0

     negative rho (up, down):  5.551E-01 0.000E+00

     total cpu time spent up to now is      579.8 secs

     total energy              =   -6167.63093284 Ry
     estimated scf accuracy    <       0.00002735 Ry

     iteration # 90     ecut=    30.00 Ry     beta= 0.40
     Davidson diagonalization with overlap
     ethr =  1.19E-09,  avg # of iterations =  3.0

     negative rho (up, down):  5.553E-01 0.000E+00

     total cpu time spent up to now is      585.9 secs

     total energy              =   -6167.63093357 Ry
     estimated scf accuracy    <       0.00000295 Ry

     iteration # 91     ecut=    30.00 Ry     beta= 0.40
     Davidson diagonalization with overlap
     ethr =  4.39E-10,  avg # of iterations =  6.0

     negative rho (up, down):  5.555E-01 0.000E+00

     total cpu time spent up to now is      592.4 secs

     total energy              =   -6167.63093329 Ry
     estimated scf accuracy    <       0.00001001 Ry

     iteration # 92     ecut=    30.00 Ry     beta= 0.40
     Davidson diagonalization with overlap
     ethr =  4.39E-10,  avg # of iterations =  6.0

     negative rho (up, down):  5.557E-01 0.000E+00

     total cpu time spent up to now is      599.0 secs

     total energy              =   -6167.63092965 Ry
     estimated scf accuracy    <       0.00003499 Ry

     iteration # 93     ecut=    30.00 Ry     beta= 0.40
     Davidson diagonalization with overlap
     ethr =  4.39E-10,  avg # of iterations =  6.0

     negative rho (up, down):  5.559E-01 0.000E+00

     total cpu time spent up to now is      605.5 secs

     total energy              =   -6167.63093252 Ry
     estimated scf accuracy    <       0.00001802 Ry

     iteration # 94     ecut=    30.00 Ry     beta= 0.40
     Davidson diagonalization with overlap
     ethr =  4.39E-10,  avg # of iterations =  3.0

     negative rho (up, down):  5.561E-01 0.000E+00

     total cpu time spent up to now is      611.6 secs

     total energy              =   -6167.63093237 Ry
     estimated scf accuracy    <       0.00000206 Ry

     iteration # 95     ecut=    30.00 Ry     beta= 0.40
     Davidson diagonalization with overlap
     ethr =  3.06E-10,  avg # of iterations =  6.0

     negative rho (up, down):  5.563E-01 0.000E+00

     total cpu time spent up to now is      618.1 secs

     total energy              =   -6167.63093379 Ry
     estimated scf accuracy    <       0.00000638 Ry

     iteration # 96     ecut=    30.00 Ry     beta= 0.40
     Davidson diagonalization with overlap
     ethr =  3.06E-10,  avg # of iterations =  3.0

     negative rho (up, down):  5.565E-01 0.000E+00

     total cpu time spent up to now is      624.2 secs

     total energy              =   -6167.63093201 Ry
     estimated scf accuracy    <       0.00000427 Ry

     iteration # 97     ecut=    30.00 Ry     beta= 0.40
     Davidson diagonalization with overlap
     ethr =  3.06E-10,  avg # of iterations =  3.0

     negative rho (up, down):  5.567E-01 0.000E+00

     total cpu time spent up to now is      630.4 secs

     total energy              =   -6167.63093106 Ry
     estimated scf accuracy    <       0.00000193 Ry

     iteration # 98     ecut=    30.00 Ry     beta= 0.40
     Davidson diagonalization with overlap
     ethr =  2.87E-10,  avg # of iterations =  3.0

     negative rho (up, down):  5.568E-01 0.000E+00

     total cpu time spent up to now is      636.5 secs

     total energy              =   -6167.63092742 Ry
     estimated scf accuracy    <       0.00000161 Ry

     iteration # 99     ecut=    30.00 Ry     beta= 0.40
     Davidson diagonalization with overlap
     ethr =  2.40E-10,  avg # of iterations =  6.0

     negative rho (up, down):  5.570E-01 0.000E+00

     total cpu time spent up to now is      643.0 secs

     total energy              =   -6167.63092524 Ry
     estimated scf accuracy    <       0.00001259 Ry

     iteration #100     ecut=    30.00 Ry     beta= 0.40
     Davidson diagonalization with overlap
     ethr =  2.40E-10,  avg # of iterations =  6.0

     negative rho (up, down):  5.572E-01 0.000E+00

     total cpu time spent up to now is      649.6 secs

     total energy              =   -6167.63092547 Ry
     estimated scf accuracy    <       0.00002872 Ry

     iteration #101     ecut=    30.00 Ry     beta= 0.40
     Davidson diagonalization with overlap
     ethr =  2.40E-10,  avg # of iterations =  6.0

     negative rho (up, down):  5.574E-01 0.000E+00

     total cpu time spent up to now is      656.2 secs

     total energy              =   -6167.63091637 Ry
     estimated scf accuracy    <       0.00003643 Ry

     iteration #102     ecut=    30.00 Ry     beta= 0.40
     Davidson diagonalization with overlap
     ethr =  2.40E-10,  avg # of iterations =  6.0

     negative rho (up, down):  5.576E-01 0.000E+00

     total cpu time spent up to now is      662.8 secs

     total energy              =   -6167.63090610 Ry
     estimated scf accuracy    <       0.00002247 Ry

     iteration #103     ecut=    30.00 Ry     beta= 0.40
     Davidson diagonalization with overlap
     ethr =  2.40E-10,  avg # of iterations =  3.0

     negative rho (up, down):  5.576E-01 0.000E+00

     total cpu time spent up to now is      669.0 secs

     total energy              =   -6167.63093015 Ry
     estimated scf accuracy    <       0.00000820 Ry

     iteration #104     ecut=    30.00 Ry     beta= 0.40
     Davidson diagonalization with overlap
     ethr =  2.40E-10,  avg # of iterations =  5.0

     negative rho (up, down):  5.578E-01 0.000E+00

     total cpu time spent up to now is      675.4 secs

     total energy              =   -6167.63092931 Ry
     estimated scf accuracy    <       0.00001308 Ry

     iteration #105     ecut=    30.00 Ry     beta= 0.40
     Davidson diagonalization with overlap
     ethr =  2.40E-10,  avg # of iterations =  5.0

     negative rho (up, down):  5.579E-01 0.000E+00

     total cpu time spent up to now is      681.9 secs

     total energy              =   -6167.63093067 Ry
     estimated scf accuracy    <       0.00000662 Ry

     iteration #106     ecut=    30.00 Ry     beta= 0.40
     Davidson diagonalization with overlap
     ethr =  2.40E-10,  avg # of iterations =  6.0

     negative rho (up, down):  5.580E-01 0.000E+00

     total cpu time spent up to now is      688.3 secs

     total energy              =   -6167.63093067 Ry
     estimated scf accuracy    <       0.00001694 Ry

     iteration #107     ecut=    30.00 Ry     beta= 0.40
     Davidson diagonalization with overlap
     ethr =  2.40E-10,  avg # of iterations =  5.0

     negative rho (up, down):  5.581E-01 0.000E+00

     total cpu time spent up to now is      694.7 secs

     total energy              =   -6167.63093411 Ry
     estimated scf accuracy    <       0.00000374 Ry

     iteration #108     ecut=    30.00 Ry     beta= 0.40
     Davidson diagonalization with overlap
     ethr =  2.40E-10,  avg # of iterations =  7.0

     negative rho (up, down):  5.582E-01 0.000E+00

     total cpu time spent up to now is      701.7 secs

     total energy              =   -6167.63093306 Ry
     estimated scf accuracy    <       0.00004749 Ry

     iteration #109     ecut=    30.00 Ry     beta= 0.40
     Davidson diagonalization with overlap
     ethr =  2.40E-10,  avg # of iterations =  7.0

     negative rho (up, down):  5.583E-01 0.000E+00

     total cpu time spent up to now is      708.5 secs

     total energy              =   -6167.63093420 Ry
     estimated scf accuracy    <       0.00002459 Ry

     iteration #110     ecut=    30.00 Ry     beta= 0.40
     Davidson diagonalization with overlap
     ethr =  2.40E-10,  avg # of iterations =  6.0

     negative rho (up, down):  5.585E-01 0.000E+00

     total cpu time spent up to now is      715.0 secs

     total energy              =   -6167.63093481 Ry
     estimated scf accuracy    <       0.00000137 Ry

     iteration #111     ecut=    30.00 Ry     beta= 0.40
     Davidson diagonalization with overlap
     ethr =  2.04E-10,  avg # of iterations =  3.0

     negative rho (up, down):  5.586E-01 0.000E+00

     total cpu time spent up to now is      721.2 secs

     total energy              =   -6167.63093465 Ry
     estimated scf accuracy    <       0.00000148 Ry

     iteration #112     ecut=    30.00 Ry     beta= 0.40
     Davidson diagonalization with overlap
     ethr =  2.04E-10,  avg # of iterations =  3.0

     negative rho (up, down):  5.587E-01 0.000E+00

     total cpu time spent up to now is      727.3 secs

     total energy              =   -6167.63093384 Ry
     estimated scf accuracy    <       0.00000115 Ry

     iteration #113     ecut=    30.00 Ry     beta= 0.40
     Davidson diagonalization with overlap
     ethr =  1.71E-10,  avg # of iterations =  5.0

     negative rho (up, down):  5.588E-01 0.000E+00

     total cpu time spent up to now is      733.6 secs

     total energy              =   -6167.63093405 Ry
     estimated scf accuracy    <       0.00000249 Ry

     iteration #114     ecut=    30.00 Ry     beta= 0.40
     Davidson diagonalization with overlap
     ethr =  1.71E-10,  avg # of iterations =  3.0

     negative rho (up, down):  5.589E-01 0.000E+00

     total cpu time spent up to now is      739.8 secs

     total energy              =   -6167.63093405 Ry
     estimated scf accuracy    <       0.00000095 Ry

     iteration #115     ecut=    30.00 Ry     beta= 0.40
     Davidson diagonalization with overlap
     ethr =  1.42E-10,  avg # of iterations =  3.0

     negative rho (up, down):  5.589E-01 0.000E+00

     total cpu time spent up to now is      746.0 secs

     total energy              =   -6167.63093408 Ry
     estimated scf accuracy    <       0.00000093 Ry

     iteration #116     ecut=    30.00 Ry     beta= 0.40
     Davidson diagonalization with overlap
     ethr =  1.38E-10,  avg # of iterations =  3.0

     negative rho (up, down):  5.590E-01 0.000E+00

     total cpu time spent up to now is      752.1 secs

     total energy              =   -6167.63093290 Ry
     estimated scf accuracy    <       0.00000053 Ry

     iteration #117     ecut=    30.00 Ry     beta= 0.40
     Davidson diagonalization with overlap
     ethr =  7.84E-11,  avg # of iterations =  6.0

     negative rho (up, down):  5.591E-01 0.000E+00

     total cpu time spent up to now is      758.5 secs

     total energy              =   -6167.63093239 Ry
     estimated scf accuracy    <       0.00000085 Ry

     iteration #118     ecut=    30.00 Ry     beta= 0.40
     Davidson diagonalization with overlap
     ethr =  7.84E-11,  avg # of iterations =  6.0

     negative rho (up, down):  5.592E-01 0.000E+00

     total cpu time spent up to now is      765.0 secs

     total energy              =   -6167.63093179 Ry
     estimated scf accuracy    <       0.00000313 Ry

     iteration #119     ecut=    30.00 Ry     beta= 0.40
     Davidson diagonalization with overlap
     ethr =  7.84E-11,  avg # of iterations =  6.0

     negative rho (up, down):  5.593E-01 0.000E+00

     total cpu time spent up to now is      771.4 secs

     total energy              =   -6167.63093139 Ry
     estimated scf accuracy    <       0.00000204 Ry

     iteration #120     ecut=    30.00 Ry     beta= 0.40
     Davidson diagonalization with overlap
     ethr =  7.84E-11,  avg # of iterations =  5.0

     negative rho (up, down):  5.593E-01 0.000E+00

     total cpu time spent up to now is      777.9 secs

     total energy              =   -6167.63093203 Ry
     estimated scf accuracy    <       0.00000303 Ry

     iteration #121     ecut=    30.00 Ry     beta= 0.40
     Davidson diagonalization with overlap
     ethr =  7.84E-11,  avg # of iterations =  6.0

     negative rho (up, down):  5.594E-01 0.000E+00

     total cpu time spent up to now is      784.4 secs

     total energy              =   -6167.63093220 Ry
     estimated scf accuracy    <       0.00000426 Ry

     iteration #122     ecut=    30.00 Ry     beta= 0.40
     Davidson diagonalization with overlap
     ethr =  7.84E-11,  avg # of iterations =  5.0

     negative rho (up, down):  5.595E-01 0.000E+00

     total cpu time spent up to now is      790.9 secs

     total energy              =   -6167.63093168 Ry
     estimated scf accuracy    <       0.00000292 Ry

     iteration #123     ecut=    30.00 Ry     beta= 0.40
     Davidson diagonalization with overlap
     ethr =  7.84E-11,  avg # of iterations =  6.0

     negative rho (up, down):  5.595E-01 0.000E+00

     total cpu time spent up to now is      797.2 secs

     total energy              =   -6167.63093154 Ry
     estimated scf accuracy    <       0.00000140 Ry

     iteration #124     ecut=    30.00 Ry     beta= 0.40
     Davidson diagonalization with overlap
     ethr =  7.84E-11,  avg # of iterations =  3.0

     negative rho (up, down):  5.596E-01 0.000E+00

     total cpu time spent up to now is      803.3 secs

     total energy              =   -6167.63093186 Ry
     estimated scf accuracy    <       0.00000074 Ry

     iteration #125     ecut=    30.00 Ry     beta= 0.40
     Davidson diagonalization with overlap
     ethr =  7.84E-11,  avg # of iterations =  3.0

     negative rho (up, down):  5.597E-01 0.000E+00

     total cpu time spent up to now is      809.5 secs

     total energy              =   -6167.63093190 Ry
     estimated scf accuracy    <       0.00000089 Ry

     iteration #126     ecut=    30.00 Ry     beta= 0.40
     Davidson diagonalization with overlap
     ethr =  7.84E-11,  avg # of iterations =  6.0

     negative rho (up, down):  5.597E-01 0.000E+00

     total cpu time spent up to now is      816.5 secs

     total energy              =   -6167.63093063 Ry
     estimated scf accuracy    <       0.00003418 Ry

     iteration #127     ecut=    30.00 Ry     beta= 0.40
     Davidson diagonalization with overlap
     ethr =  7.84E-11,  avg # of iterations =  6.0

     negative rho (up, down):  5.598E-01 0.000E+00

     total cpu time spent up to now is      823.3 secs

     total energy              =   -6167.63093204 Ry
     estimated scf accuracy    <       0.00000079 Ry

     iteration #128     ecut=    30.00 Ry     beta= 0.40
     Davidson diagonalization with overlap
     ethr =  7.84E-11,  avg # of iterations =  3.0

     negative rho (up, down):  5.598E-01 0.000E+00

     total cpu time spent up to now is      829.4 secs

     total energy              =   -6167.63093136 Ry
     estimated scf accuracy    <       0.00000086 Ry

     iteration #129     ecut=    30.00 Ry     beta= 0.40
     Davidson diagonalization with overlap
     ethr =  7.84E-11,  avg # of iterations =  6.0

     negative rho (up, down):  5.599E-01 0.000E+00

     total cpu time spent up to now is      835.9 secs

     total energy              =   -6167.63093091 Ry
     estimated scf accuracy    <       0.00000979 Ry

     iteration #130     ecut=    30.00 Ry     beta= 0.40
     Davidson diagonalization with overlap
     ethr =  7.84E-11,  avg # of iterations =  6.0

     negative rho (up, down):  5.600E-01 0.000E+00

     total cpu time spent up to now is      842.3 secs

     total energy              =   -6167.63093149 Ry
     estimated scf accuracy    <       0.00000288 Ry

     iteration #131     ecut=    30.00 Ry     beta= 0.40
     Davidson diagonalization with overlap
     ethr =  7.84E-11,  avg # of iterations =  3.0

     negative rho (up, down):  5.600E-01 0.000E+00

     total cpu time spent up to now is      848.4 secs

     total energy              =   -6167.63093143 Ry
     estimated scf accuracy    <       0.00000063 Ry

     iteration #132     ecut=    30.00 Ry     beta= 0.40
     Davidson diagonalization with overlap
     ethr =  7.84E-11,  avg # of iterations =  3.0

     negative rho (up, down):  5.600E-01 0.000E+00

     total cpu time spent up to now is      854.6 secs

     total energy              =   -6167.63093129 Ry
     estimated scf accuracy    <       0.00000016 Ry

     iteration #133     ecut=    30.00 Ry     beta= 0.40
     Davidson diagonalization with overlap
     ethr =  2.45E-11,  avg # of iterations =  5.0

     negative rho (up, down):  5.601E-01 0.000E+00

     total cpu time spent up to now is      861.0 secs

     total energy              =   -6167.63093088 Ry
     estimated scf accuracy    <       0.00000027 Ry

     iteration #134     ecut=    30.00 Ry     beta= 0.40
     Davidson diagonalization with overlap
     ethr =  2.45E-11,  avg # of iterations =  6.0

     negative rho (up, down):  5.601E-01 0.000E+00

     total cpu time spent up to now is      867.5 secs

     total energy              =   -6167.63093087 Ry
     estimated scf accuracy    <       0.00000063 Ry

     iteration #135     ecut=    30.00 Ry     beta= 0.40
     Davidson diagonalization with overlap
     ethr =  2.45E-11,  avg # of iterations =  3.0

     negative rho (up, down):  5.602E-01 0.000E+00

     total cpu time spent up to now is      873.7 secs

     total energy              =   -6167.63093082 Ry
     estimated scf accuracy    <       0.00000017 Ry

     iteration #136     ecut=    30.00 Ry     beta= 0.40
     Davidson diagonalization with overlap
     ethr =  2.45E-11,  avg # of iterations =  6.0

     negative rho (up, down):  5.602E-01 0.000E+00

     total cpu time spent up to now is      880.2 secs

     total energy              =   -6167.63093059 Ry
     estimated scf accuracy    <       0.00000019 Ry

     iteration #137     ecut=    30.00 Ry     beta= 0.40
     Davidson diagonalization with overlap
     ethr =  2.45E-11,  avg # of iterations =  3.0

     negative rho (up, down):  5.603E-01 0.000E+00

     total cpu time spent up to now is      886.4 secs

     End of self-consistent calculation

          k = 0.0000 0.0000 0.0000 ( 42465 PWs)   bands (ev):

   -66.2438 -66.2323 -66.2317 -66.2132 -66.2043 -66.2037 -66.2032 -66.1971
   -66.1967 -66.1899 -66.1866 -66.1821 -66.1821 -66.1812 -66.1750 -66.1746
   -66.1745 -66.1662 -66.1660 -66.1658 -66.1583 -66.1580 -66.1549 -66.1544
   -66.1507 -66.1248 -66.0992 -66.0990 -66.0989 -66.0082 -66.0035 -66.0033
   -39.8921 -39.8919 -39.8864 -39.8421 -39.8354 -39.8352 -39.8288 -39.7941
   -39.7935 -39.7931 -39.7880 -39.7876 -39.7796 -39.7794 -39.7565 -39.7563
   -39.7498 -39.7418 -39.7094 -39.7031 -39.7029 -39.6865 -39.6863 -39.6763
   -39.6744 -39.6743 -39.6686 -39.6589 -39.6588 -39.6472 -39.6404 -39.6380
   -39.6378 -39.6147 -39.6143 -39.6096 -39.6069 -39.6058 -39.6054 -39.6015
   -39.5983 -39.5977 -39.5976 -39.5834 -39.5833 -39.5824 -39.5823 -39.5788
   -39.5787 -39.5720 -39.5718 -39.5670 -39.5669 -39.5660 -39.5519 -39.5449
   -39.5447 -39.5401 -39.5340 -39.5221 -39.5220 -39.5217 -39.5209 -39.5205
   -39.5100 -39.5091 -39.5091 -39.5071 -39.5022 -39.5020 -39.4988 -39.4988
   -39.4984 -39.4962 -39.4908 -39.4908 -39.4763 -39.4761 -39.4742 -39.4714
   -39.4712 -39.4580 -39.4579 -39.4545 -39.4458 -39.4389 -39.4387 -39.4371
   -39.4332 -39.4331 -39.3782 -39.3780 -39.3778 -39.3226 -39.2828 -39.2826
   -19.0606 -18.9063 -18.7417 -18.7415 -18.7070 -18.7069 -18.6848 -18.6648
   -18.6648 -18.6546 -18.6261 -18.5189 -18.5186 -18.4443 -18.4354 -18.4351
   -18.4340 -18.4051 -18.3839 -18.3839 -18.3818 -18.3817 -18.3697 -18.3532
   -18.3530 -18.3377 -18.2546 -18.2542 -18.1678 -18.1673 -18.1205 -16.7210
   -12.6404 -12.2265 -12.1984 -12.1982 -12.1778 -12.1774 -12.1329 -11.3937
   -11.3370 -11.3366 -11.3260 -11.3258 -11.3225 -11.2584 -11.2207 -11.2204
    -7.2900  -7.2893  -7.2664  -6.7599  -6.2380  -6.2377  -6.2342  -6.1992
    -6.1988  -6.1987  -6.1618  -6.1587  -6.1581  -6.1329  -6.1326  -6.0733
    -5.8865  -5.8717  -5.8707  -5.8640  -5.8427  -5.8418  -5.7269  -5.7093
    -5.7081  -5.6530  -5.6528  -5.6263  -5.6261  -5.6187  -5.6024  -5.5385
    -5.5381  -5.5335  -5.5324  -5.4516  -5.4512  -5.3072  -5.2891  -5.2890
    -5.2735  -5.2623  -5.2621  -5.2105  -5.2103  -5.1512  -5.1509  -5.0896
    -5.0566  -5.0564  -5.0236  -5.0235  -4.9775  -4.9211  -4.8761  -4.8672
    -4.8660  -4.8243  -4.8116  -4.8111  -4.7772  -4.7694  -4.7693  -4.7420
    -4.7266  -4.6906  -4.6895  -4.6660  -4.6651  -4.4871  -4.4366  -4.4360
    -4.3775  -4.3771  -4.3720  -4.3390  -4.3370  -4.3363  -4.2847  -4.2844
    -4.2806  -4.2741  -4.2279  -4.2271  -4.2151  -4.2140  -4.2118  -4.2116
    -4.2012  -4.2005  -4.1544  -4.1139  -4.1137  -4.0557  -4.0503  -4.0433
    -4.0428  -3.8396  -3.8390  -3.7911  -3.7656  -3.7650  -3.7554  -3.6727
    -3.6722  -3.6291  -3.6288  -3.5872  -3.5802  -3.5798  -3.4384  -3.3583
    -3.3519  -3.3122  -3.3111  -3.3001  -3.2997  -3.2184  -3.1988  -3.1982
    -2.9957  -2.9947  -2.8775  -2.6394  -2.6046  -2.6041  -2.5073  -2.5073
    -2.4768  -2.3844  -2.3838  -2.3674  -2.3446  -2.2542  -2.2540  -2.0693
    -2.0462  -2.0456  -1.8946  -1.8935  -1.8926  -1.4775  -1.0688  -1.0677
    -1.0440  -0.9278  -0.9278  -0.7738  -0.7736  -0.7329  -0.7323  -0.7322
    -0.7048  -0.7044  -0.6310  -0.1733  -0.1729  -0.1523  -0.1360  -0.0995
    -0.0990   0.1259   0.1665   0.2448   0.2453   0.2458   0.2847   0.2848
     0.3509   0.3510   0.3701   0.4047   0.4049   0.4526   0.5533   0.5633
     0.5636   0.5868   0.5873   0.6232   0.6950   0.6952   0.7022   0.7361
     0.7362   0.7541   0.7544   0.7730   0.8013   0.8114   0.8117   0.8366
     0.8369   0.8771   1.0344   1.0762   1.0763   1.1426   1.1432   1.1728
     1.1730   1.1766   1.1972   1.1974   1.2031   1.2380   1.3023   1.3026
     1.3362   1.3560   1.3565   1.3677   1.3680   1.3695   1.4374   1.4395
     1.4399   1.4570   1.4898   1.5207   1.5211   1.5759   1.5798   1.5802
     1.5939   1.6382   1.6384

     the Fermi energy is    -0.0718 ev

!    total energy              =   -6167.63093017 Ry
     estimated scf accuracy    <       0.00000008 Ry
     smearing contrib. (-TS)   =      -0.00423670 Ry
     internal energy E=F+TS    =   -6167.62669347 Ry

     The total energy is F=E-TS. E is the sum of the following terms:
     one-electron contribution =  -44847.50615643 Ry
     hartree contribution      =   22437.75234526 Ry
     xc contribution           =    -927.41408934 Ry
     ewald contribution        =   17487.55369807 Ry
     one-center paw contrib.   =    -318.01249104 Ry

     convergence has been achieved in 137 iterations

     negative rho (up, down):  5.603E-01 0.000E+00

     Forces acting on atoms (cartesian axes, Ry/au):

     atom    1 type  1   force =    -0.00817009    0.00470417    0.00140097
     atom    2 type  1   force =     0.00068841    0.00029439   -0.01246028
     atom    3 type  1   force =     0.00818597    0.00473201    0.00141340
     atom    4 type  1   force =     0.01946791   -0.01111979   -0.01556834
     atom    5 type  1   force =     0.00177056   -0.00683750   -0.00266691
     atom    6 type  1   force =    -0.00002051   -0.00001504   -0.00390634
     atom    7 type  1   force =    -0.00004187   -0.00939757    0.00142035
     atom    8 type  1   force =    -0.00000484    0.02229606   -0.01569224
     atom    9 type  1   force =    -0.00504770    0.00494163   -0.00264573
     atom   10 type  1   force =    -0.01953976   -0.01114311   -0.01562689
     atom   11 type  1   force =    -0.00676655    0.00197378   -0.00261390
     atom   12 type  1   force =    -0.00067664    0.00029906   -0.01253584
     atom   13 type  1   force =    -0.00176202   -0.00685248   -0.00264687
     atom   14 type  1   force =     0.00507023    0.00493806   -0.00263901
     atom   15 type  1   force =     0.00001087   -0.00067545   -0.01253115
     atom   16 type  1   force =     0.00676673    0.00196040   -0.00261030
     atom   17 type  2   force =     0.00168976    0.00119476    0.00488149
     atom   18 type  2   force =    -0.00158670    0.00056126   -0.00885256
     atom   19 type  2   force =    -0.00000765    0.00002467    0.00586424
     atom   20 type  2   force =     0.00205829    0.00033135   -0.01170646
     atom   21 type  2   force =    -0.00005693   -0.00029976   -0.01000000
     atom   22 type  2   force =     0.00350108   -0.00223234    0.00593557
     atom   23 type  2   force =    -0.00001974    0.00031974   -0.00819999
     atom   24 type  2   force =    -0.00000715    0.00065645   -0.00859833
     atom   25 type  2   force =    -0.01829726    0.00377948   -0.02466931
     atom   26 type  2   force =     0.00051065   -0.00185551   -0.01152462
     atom   27 type  2   force =    -0.00159293    0.00122391   -0.01166055
     atom   28 type  2   force =     0.00001605   -0.00153363   -0.00870532
     atom   29 type  2   force =     0.00021350    0.00012289    0.00588659
     atom   30 type  2   force =     0.00000415    0.00397421    0.00588883
     atom   31 type  2   force =     0.01239752    0.01393737   -0.02449547
     atom   32 type  2   force =    -0.00203858    0.00031399   -0.01170761
     atom   33 type  2   force =     0.00159907    0.00054179   -0.00886174
     atom   34 type  2   force =    -0.00348812   -0.00224502    0.00594667
     atom   35 type  2   force =    -0.00029224    0.00005877   -0.00864525
     atom   36 type  2   force =     0.00000190   -0.00220099    0.00484448
     atom   37 type  2   force =     0.00587634   -0.01756109   -0.02462496
     atom   38 type  2   force =    -0.00001006    0.00022924   -0.00995326
     atom   39 type  2   force =     0.00005736   -0.00033603   -0.01001463
     atom   40 type  2   force =    -0.00052494   -0.00184516   -0.01153318
     atom   41 type  2   force =     0.01827303    0.00376728   -0.02459242
     atom   42 type  2   force =     0.00155049    0.00122295   -0.01165807
     atom   43 type  2   force =    -0.00588828   -0.01756541   -0.02464960
     atom   44 type  2   force =     0.00034951    0.00004731   -0.00860323
     atom   45 type  2   force =    -0.00167754    0.00119078    0.00486475
     atom   46 type  2   force =    -0.00022896    0.00012289    0.00590668
     atom   47 type  2   force =     0.00000161   -0.00013863   -0.09359350
     atom   48 type  2   force =    -0.01237498    0.01391113   -0.02449763
     atom   49 type  3   force =    -0.00000396    0.01363781   -0.00522770
     atom   50 type  3   force =    -0.00629350   -0.01291495    0.02660128
     atom   51 type  3   force =     0.01170059   -0.00689855   -0.00523736
     atom   52 type  3   force =     0.07198694    0.04151272    0.07491066
     atom   53 type  3   force =     0.00490595    0.00283581   -0.02459885
     atom   54 type  3   force =    -0.00001896    0.00082907    0.03418460
     atom   55 type  3   force =     0.00064861   -0.00036150    0.03424253
     atom   56 type  3   force =    -0.01433698    0.00092273    0.02645239
     atom   57 type  3   force =    -0.00003001    0.00001636    0.02702340
     atom   58 type  3   force =     0.00008751    0.00384241    0.03469666
     atom   59 type  3   force =     0.00546019    0.00318635    0.03321794
     atom   60 type  3   force =    -0.07195693    0.04147533    0.07480458
     atom   61 type  3   force =     0.00796669    0.01210636    0.02649016
     atom   62 type  3   force =    -0.00001744   -0.08328393    0.07501573
     atom   63 type  3   force =    -0.00341886   -0.00187972    0.03481268
     atom   64 type  3   force =     0.00668572   -0.01274117   -0.02303948
     atom   65 type  3   force =     0.01435401    0.00093856    0.02646192
     atom   66 type  3   force =    -0.00776878    0.01223037   -0.02301762
     atom   67 type  3   force =     0.00639225   -0.01299278    0.02652813
     atom   68 type  3   force =    -0.01438806    0.00055181   -0.02295305
     atom   69 type  3   force =     0.00780452    0.01226261   -0.02298030
     atom   70 type  3   force =    -0.00805630    0.01209280    0.02652981
     atom   71 type  3   force =    -0.00003438   -0.00631557    0.03329005
     atom   72 type  3   force =    -0.00669252   -0.01274862   -0.02304070
     atom   73 type  3   force =    -0.00538371    0.00314849    0.03324081
     atom   74 type  3   force =     0.00000093    0.00011108   -0.03856752
     atom   75 type  3   force =     0.01442494    0.00059569   -0.02296216
     atom   76 type  3   force =    -0.00068233   -0.00040926    0.03422853
     atom   77 type  3   force =     0.00001178   -0.00574489   -0.02464603
     atom   78 type  3   force =     0.00336355   -0.00184301    0.03475424
     atom   79 type  3   force =    -0.00481961    0.00285319   -0.02467778
     atom   80 type  3   force =    -0.01183080   -0.00683286   -0.00530007

     Total force =     0.287533     Total SCF correction =     0.001174


     Computing stress (Cartesian axis) and pressure


     negative rho (up, down):  5.603E-01 0.000E+00
          total   stress  (Ry/bohr**3)                   (kbar)     P=     -438.93
  -0.00297651  -0.00000002   0.00000004         -437.86       -0.00        0.01
  -0.00000002  -0.00297658  -0.00000001           -0.00     -437.87       -0.00
   0.00000004  -0.00000001  -0.00299827            0.01       -0.00     -441.06


     Writing all to output data dir /root/qe_scratch/pristine_V2CO2.save/ :
     XML data file, charge density, pseudopotentials, collected wavefunctions
 
     init_run     :      9.37s CPU     11.94s WALL (       1 calls)
     electrons    :    749.53s CPU    873.93s WALL (       1 calls)
     forces       :      1.62s CPU      1.66s WALL (       1 calls)
     stress       :      2.49s CPU      2.53s WALL (       1 calls)

     Called by init_run:
     wfcinit      :      0.76s CPU      0.99s WALL (       1 calls)
     potinit      :      7.54s CPU      9.45s WALL (       1 calls)
     hinit0       :      0.55s CPU      0.64s WALL (       1 calls)

     Called by electrons:
     c_bands      :    228.30s CPU    228.76s WALL (     137 calls)
     sum_band     :     29.71s CPU     29.80s WALL (     137 calls)
     v_of_rho     :     11.25s CPU     14.77s WALL (     138 calls)
     newd         :     38.48s CPU     38.72s WALL (     138 calls)
                                       38.72s GPU  (     138 calls)
     PAW_pot      :    416.77s CPU    532.09s WALL (     138 calls)
     mix_rho      :      8.07s CPU      8.89s WALL (     137 calls)

     Called by c_bands:
     init_us_2    :      0.73s CPU      0.74s WALL (     275 calls)
     cegterg      :    225.44s CPU    225.77s WALL (     137 calls)

     Called by *egterg:
     cdiaghg      :     24.04s CPU     24.12s WALL (     795 calls)
                                       24.12s GPU  (     795 calls)
     h_psi        :     86.23s CPU     86.66s WALL (     796 calls)
                                       86.62s GPU  (     796 calls)
     s_psi        :      2.06s CPU      2.08s WALL (     796 calls)
     g_psi        :      0.00s CPU      0.28s WALL (     658 calls)
                                        0.28s GPU  (     658 calls)

     Called by h_psi:
     h_psi:calbec :      0.11s CPU     32.66s WALL (     796 calls)
                                       32.66s GPU  (     796 calls)
     vloc_psi     :     27.89s CPU     28.10s WALL (     796 calls)
                                       28.10s GPU  (     796 calls)
     add_vuspsi   :      2.15s CPU     25.69s WALL (     796 calls)
                                       25.68s GPU  (     796 calls)

     General routines
     calbec       :      0.11s CPU      0.28s WALL (     938 calls)
     fft          :     13.27s CPU     17.48s WALL (    1817 calls)
                                        0.33s GPU  (    1679 calls)
     ffts         :      5.60s CPU      7.06s WALL (     275 calls)
                                        0.02s GPU  (     137 calls)
     fftw         :      0.29s CPU     27.97s WALL (   20930 calls)
                                       27.90s GPU  (   20930 calls)
     interpolate  :     19.93s CPU     25.34s WALL (     138 calls)
 
     Parallel routines
 
     PWSCF        :  12m43.71s CPU  14m51.08s WALL

 
   This run was terminated on:  11: 4:28   6May2026            

=------------------------------------------------------------------------------=
   JOB DONE.
=------------------------------------------------------------------------------=
Warning: ieee_invalid is signaling
Warning: ieee_divide_by_zero is signaling
Warning: ieee_underflow is signaling
Warning: ieee_inexact is signaling
FORTRAN STOP
