--------------------------------------------------------------------------
WARNING: Open MPI tried to bind a process but failed.  This is a
warning only; your job will continue, though performance may
be degraded.

  Local host:        3253031b5b37
  Application name:  /root/qe-7.3.1/bin/pw.x
  Error message:     failed to bind memory
  Location:          ../../../../../orte/mca/rtc/hwloc/rtc_hwloc.c:447

--------------------------------------------------------------------------

     Program PWSCF v.7.3.1 starts on  6May2026 at  9:25:44 

     This program is part of the open-source Quantum ESPRESSO suite
     for quantum simulation of materials; please cite
         "P. Giannozzi et al., J. Phys.:Condens. Matter 21 395502 (2009);
         "P. Giannozzi et al., J. Phys.:Condens. Matter 29 465901 (2017);
         "P. Giannozzi et al., J. Chem. Phys. 152 154105 (2020);
          URL http://www.quantum-espresso.org", 
     in publications or presentations arising from this work. More details at
     http://www.quantum-espresso.org/quote

     Parallel version (MPI & OpenMP), running on       8 processor cores
     Number of MPI processes:                 1
     Threads/MPI process:                     8

     MPI processes distributed on     1 nodes
     86244 MiB available memory on the printing compute node when the environment starts
 
     Reading input from pristine_SnS2.in

     Current dimensions of program PWSCF are:
     Max number of different atomic species (ntypx) = 10
     Max number of k-points (npk) =  40000
     Max angular momentum in pseudopotentials (lmaxx) =  4
     file S.UPF: wavefunction(s)  3S 3P renormalized
     file Sn.UPF: wavefunction(s)  5S 4D renormalized
 
     Subspace diagonalization in iterative solution of the eigenvalue problem:
     a serial algorithm will be used

 
     G-vector sticks info
     --------------------
     sticks:   dense  smooth     PW     G-vecs:    dense   smooth      PW
     Sum        5197    3463    859               509859   277387   34603
 
     Using Slab Decomposition
 


     bravais-lattice index     =            0
     lattice parameter (alat)  =      20.4672  a.u.
     unit-cell volume          =   12496.6279 (a.u.)^3
     number of atoms/cell      =           27
     number of atomic types    =            2
     number of electrons       =       234.00
     number of Kohn-Sham states=          140
     kinetic-energy cutoff     =      30.0000  Ry
     charge density cutoff     =     180.0000  Ry
     scf convergence threshold =      1.0E-07
     mixing beta               =       0.4000
     number of iterations used =            8  plain     mixing
     Exchange-correlation= PBE
                           (   1   4   3   4   0   0   0)

     GPU acceleration is ACTIVE.  1 visible GPUs per MPI rank


     celldm(1)=  20.467172  celldm(2)=   0.000000  celldm(3)=   0.000000
     celldm(4)=   0.000000  celldm(5)=   0.000000  celldm(6)=   0.000000

     crystal axes: (cart. coord. in units of alat)
               a(1) = (   1.000000   0.000000   0.000000 )  
               a(2) = (  -0.500000   0.866025   0.000000 )  
               a(3) = (   0.000000   0.000000   1.683018 )  

     reciprocal axes: (cart. coord. in units 2 pi/alat)
               b(1) = (  1.000000  0.577350 -0.000000 )  
               b(2) = (  0.000000  1.154701  0.000000 )  
               b(3) = (  0.000000 -0.000000  0.594171 )  


     PseudoPot. # 1 for S  read from file:
     /root/qe_pseudos/S.UPF
     MD5 check sum: fb45dfebcf3e72a4e1bd4a866ec2e262
     Pseudo is Projector augmented-wave + core cor, Zval =  6.0
     Generated using &quot;atomic&quot; code by A. Dal Corso  v.6.3
     Shape of augmentation charge: PSQ
     Using radial grid of 1151 points,  6 beta functions with: 
                l(1) =   0
                l(2) =   0
                l(3) =   1
                l(4) =   1
                l(5) =   2
                l(6) =   2
     Q(r) pseudized with 0 coefficients 


     PseudoPot. # 2 for Sn read from file:
     /root/qe_pseudos/Sn.UPF
     MD5 check sum: 72e22d5a9e1ec4fde6a02e1f963898e9
     Pseudo is Ultrasoft + core correction, Zval = 14.0
     Generated using &quot;atomic&quot; code by A. Dal Corso  v.6.3
     Using radial grid of 1243 points,  6 beta functions with: 
                l(1) =   0
                l(2) =   0
                l(3) =   1
                l(4) =   1
                l(5) =   2
                l(6) =   2
     Q(r) pseudized with 0 coefficients 


     atomic species   valence    mass     pseudopotential
     S                 6.00    32.06000     S ( 1.00)
     Sn               14.00   118.71000     Sn( 1.00)

     No symmetry found



   Cartesian axes

     site n.     atom                  positions (alat units)
         1        S      tau(   1) = (   0.4900215   0.6588854   0.9985058  )
         2        S      tau(   2) = (   0.6538486   0.3745269   0.6834131  )
         3        S      tau(   3) = (   0.6537706   0.3750821   0.9996569  )
         4        S      tau(   4) = (   0.8128499   0.0820383   0.6726769  )
         5        S      tau(   5) = (   0.8125010   0.0813966   1.0112085  )
         6        S      tau(   6) = (   0.1665749   0.6751931   0.6901494  )
         7        S      tau(   7) = (   0.1666139   0.6751546   0.9924514  )
         8        S      tau(   8) = (   0.3278882   0.3829211   0.6923310  )
         9        S      tau(   9) = (   0.4898790   0.6587225   0.6843490  )
        10        S      tau(  10) = (   0.5023913   0.0962806   0.6905868  )
        11        S      tau(  11) = (   0.3273763   0.3832119   0.9904406  )
        12        S      tau(  12) = (  -0.1619037   0.6807095   0.6918187  )
        13        S      tau(  13) = (  -0.1615245   0.6799063   0.9918001  )
        14        S      tau(  14) = (  -0.0029154   0.3945453   0.6909524  )
        15        S      tau(  15) = (  -0.0023662   0.3945489   0.9914137  )
        16        S      tau(  16) = (   0.1829372   0.1026428   0.6875176  )
        17        S      tau(  17) = (   0.1824803   0.1023541   0.9950766  )
        18        S      tau(  18) = (   0.5021559   0.0966926   0.9930255  )
        19        Sn     tau(  19) = (   0.1686614   0.2852875   0.8412727  )
        20        Sn     tau(  20) = (   0.3448997   0.0032323   0.8413894  )
        21        Sn     tau(  21) = (   0.0058242   0.5909833   0.8413370  )
        22        Sn     tau(  22) = (  -0.3320475   0.5795064   0.8414597  )
        23        Sn     tau(  23) = (   0.6617638  -0.0015783   0.8415873  )
        24        Sn     tau(  24) = (   0.4974670   0.2854003   0.8414638  )
        25        Sn     tau(  25) = (  -0.1785087   0.3669810   0.8417125  )
        26        Sn     tau(  26) = (   0.3307502   0.5746836   0.8413294  )
        27        Sn     tau(  27) = (   0.0621188  -0.0444636   0.8414465  )

     number of k points=     1  Methfessel-Paxton smearing, width (Ry)=  0.0100
                       cart. coord. in units 2pi/alat
        k(    1) = (   0.0000000   0.0000000   0.0000000), wk =   2.0000000

     Dense  grid:   509859 G-vectors     FFT dimensions: (  90,  90, 150)

     Smooth grid:   277387 G-vectors     FFT dimensions: (  72,  72, 125)

     Estimated max dynamical RAM per process >       2.44 GB

     Check: negative core charge=   -0.000003

     Initial potential from superposition of free atoms

     starting charge     233.9869, renormalised to     234.0000

     negative rho (up, down):  2.652E-02 0.000E+00
     Starting wfcs are  153 randomized atomic wfcs
     Checking if some PAW data can be deallocated... 

     total cpu time spent up to now is       15.7 secs

     Self-consistent Calculation

     iteration #  1     ecut=    30.00 Ry     beta= 0.40
     Davidson diagonalization with overlap
     ethr =  1.00E-02,  avg # of iterations =  4.0

     negative rho (up, down):  2.535E-02 0.000E+00

     total cpu time spent up to now is       23.9 secs

     total energy              =   -2653.00757586 Ry
     estimated scf accuracy    <       3.15649154 Ry

     iteration #  2     ecut=    30.00 Ry     beta= 0.40
     Davidson diagonalization with overlap
     ethr =  1.35E-03,  avg # of iterations =  2.0

     negative rho (up, down):  2.572E-02 0.000E+00

     total cpu time spent up to now is       32.0 secs

     total energy              =   -2652.68617268 Ry
     estimated scf accuracy    <      15.38626784 Ry

     iteration #  3     ecut=    30.00 Ry     beta= 0.40
     Davidson diagonalization with overlap
     ethr =  1.35E-03,  avg # of iterations =  2.0

     negative rho (up, down):  2.582E-02 0.000E+00

     total cpu time spent up to now is       39.9 secs

     total energy              =   -2654.08021329 Ry
     estimated scf accuracy    <       1.30762249 Ry

     iteration #  4     ecut=    30.00 Ry     beta= 0.40
     Davidson diagonalization with overlap
     ethr =  5.59E-04,  avg # of iterations =  2.0

     negative rho (up, down):  2.554E-02 0.000E+00

     total cpu time spent up to now is       47.9 secs

     total energy              =   -2654.04569269 Ry
     estimated scf accuracy    <       0.49636179 Ry

     iteration #  5     ecut=    30.00 Ry     beta= 0.40
     Davidson diagonalization with overlap
     ethr =  2.12E-04,  avg # of iterations =  2.0

     negative rho (up, down):  2.558E-02 0.000E+00

     total cpu time spent up to now is       55.9 secs

     total energy              =   -2654.15575715 Ry
     estimated scf accuracy    <       1.36707362 Ry

     iteration #  6     ecut=    30.00 Ry     beta= 0.40
     Davidson diagonalization with overlap
     ethr =  2.12E-04,  avg # of iterations =  1.0

     negative rho (up, down):  2.560E-02 0.000E+00

     total cpu time spent up to now is       63.9 secs

     total energy              =   -2654.14142385 Ry
     estimated scf accuracy    <       0.89368329 Ry

     iteration #  7     ecut=    30.00 Ry     beta= 0.40
     Davidson diagonalization with overlap
     ethr =  2.12E-04,  avg # of iterations =  1.0

     negative rho (up, down):  2.543E-02 0.000E+00

     total cpu time spent up to now is       72.0 secs

     total energy              =   -2654.08525498 Ry
     estimated scf accuracy    <       0.65942291 Ry

     iteration #  8     ecut=    30.00 Ry     beta= 0.40
     Davidson diagonalization with overlap
     ethr =  2.12E-04,  avg # of iterations =  1.0

     negative rho (up, down):  2.533E-02 0.000E+00

     total cpu time spent up to now is       79.9 secs

     total energy              =   -2654.13523845 Ry
     estimated scf accuracy    <       0.46689715 Ry

     iteration #  9     ecut=    30.00 Ry     beta= 0.40
     Davidson diagonalization with overlap
     ethr =  2.00E-04,  avg # of iterations =  1.0

     negative rho (up, down):  2.518E-02 0.000E+00

     total cpu time spent up to now is       88.0 secs

     total energy              =   -2654.14165599 Ry
     estimated scf accuracy    <       0.14038902 Ry

     iteration # 10     ecut=    30.00 Ry     beta= 0.40
     Davidson diagonalization with overlap
     ethr =  6.00E-05,  avg # of iterations =  1.0

     negative rho (up, down):  2.520E-02 0.000E+00

     total cpu time spent up to now is       96.1 secs

     total energy              =   -2654.12785308 Ry
     estimated scf accuracy    <       0.23050750 Ry

     iteration # 11     ecut=    30.00 Ry     beta= 0.40
     Davidson diagonalization with overlap
     ethr =  6.00E-05,  avg # of iterations =  1.0

     negative rho (up, down):  2.515E-02 0.000E+00

     total cpu time spent up to now is      104.0 secs

     total energy              =   -2654.13652122 Ry
     estimated scf accuracy    <       0.01146810 Ry

     iteration # 12     ecut=    30.00 Ry     beta= 0.40
     Davidson diagonalization with overlap
     ethr =  4.90E-06,  avg # of iterations =  7.0

     negative rho (up, down):  2.514E-02 0.000E+00

     total cpu time spent up to now is      112.5 secs

     total energy              =   -2654.13587639 Ry
     estimated scf accuracy    <       0.01847223 Ry

     iteration # 13     ecut=    30.00 Ry     beta= 0.40
     Davidson diagonalization with overlap
     ethr =  4.90E-06,  avg # of iterations =  1.0

     negative rho (up, down):  2.512E-02 0.000E+00

     total cpu time spent up to now is      120.6 secs

     total energy              =   -2654.13646447 Ry
     estimated scf accuracy    <       0.00026811 Ry

     iteration # 14     ecut=    30.00 Ry     beta= 0.40
     Davidson diagonalization with overlap
     ethr =  1.15E-07,  avg # of iterations =  2.0

     negative rho (up, down):  2.512E-02 0.000E+00

     total cpu time spent up to now is      128.8 secs

     total energy              =   -2654.13647590 Ry
     estimated scf accuracy    <       0.00006303 Ry

     iteration # 15     ecut=    30.00 Ry     beta= 0.40
     Davidson diagonalization with overlap
     ethr =  2.69E-08,  avg # of iterations =  2.0

     negative rho (up, down):  2.511E-02 0.000E+00

     total cpu time spent up to now is      136.9 secs

     total energy              =   -2654.13648057 Ry
     estimated scf accuracy    <       0.00001090 Ry

     iteration # 16     ecut=    30.00 Ry     beta= 0.40
     Davidson diagonalization with overlap
     ethr =  4.66E-09,  avg # of iterations =  2.0

     negative rho (up, down):  2.511E-02 0.000E+00

     total cpu time spent up to now is      145.0 secs

     total energy              =   -2654.13648186 Ry
     estimated scf accuracy    <       0.00000856 Ry

     iteration # 17     ecut=    30.00 Ry     beta= 0.40
     Davidson diagonalization with overlap
     ethr =  3.66E-09,  avg # of iterations =  2.0

     negative rho (up, down):  2.511E-02 0.000E+00

     total cpu time spent up to now is      153.2 secs

     total energy              =   -2654.13648218 Ry
     estimated scf accuracy    <       0.00000222 Ry

     iteration # 18     ecut=    30.00 Ry     beta= 0.40
     Davidson diagonalization with overlap
     ethr =  9.50E-10,  avg # of iterations =  2.0

     negative rho (up, down):  2.511E-02 0.000E+00

     total cpu time spent up to now is      161.1 secs

     total energy              =   -2654.13648217 Ry
     estimated scf accuracy    <       0.00000237 Ry

     iteration # 19     ecut=    30.00 Ry     beta= 0.40
     Davidson diagonalization with overlap
     ethr =  9.50E-10,  avg # of iterations =  1.0

     negative rho (up, down):  2.511E-02 0.000E+00

     total cpu time spent up to now is      169.1 secs

     total energy              =   -2654.13648229 Ry
     estimated scf accuracy    <       0.00000081 Ry

     iteration # 20     ecut=    30.00 Ry     beta= 0.40
     Davidson diagonalization with overlap
     ethr =  3.45E-10,  avg # of iterations =  1.0

     negative rho (up, down):  2.511E-02 0.000E+00

     total cpu time spent up to now is      177.1 secs

     End of self-consistent calculation

          k = 0.0000 0.0000 0.0000 ( 34603 PWs)   bands (ev):

   -23.6783 -23.5562 -23.4593 -23.4132 -23.3724 -23.3110 -23.2867 -23.2803
   -23.2628 -23.2356 -23.2244 -23.2161 -23.2069 -23.2053 -23.1949 -23.1875
   -23.1864 -23.1816 -23.1749 -23.1741 -23.1664 -23.1562 -23.1523 -23.1507
   -23.1432 -23.1322 -23.1308 -23.1207 -23.1169 -23.1144 -23.1062 -23.1054
   -23.0942 -23.0822 -23.0802 -23.0534 -23.0441 -23.0409 -23.0151 -22.9892
   -22.7375 -22.7267 -22.6897 -22.6637 -22.6273 -15.8462 -14.9088 -14.9025
   -14.8691 -14.7320 -14.7181 -14.2460 -14.0800 -13.9897 -13.6447 -13.5916
   -13.5048 -13.4411 -13.3489 -13.0414 -12.9817 -12.6537 -12.1565  -9.5559
    -9.2548  -9.0998  -8.9695  -8.7208  -8.3683  -8.3387  -8.1035  -7.9630
    -6.2657  -6.2230  -6.0238  -5.8824  -5.7897  -5.7373  -5.7089  -5.5485
    -5.5260  -5.4444  -5.3990  -5.3962  -5.3554  -5.3070  -5.0702  -4.9477
    -4.8469  -4.2887  -4.0578  -4.0196  -3.9253  -3.8935  -3.8382  -3.7324
    -3.5241  -3.3003  -3.2378  -3.1366  -2.9966  -2.8285  -2.8023  -2.7134
    -2.6332  -2.5679  -2.5001  -2.4312  -2.3750  -2.3541  -2.3088  -2.2004
    -2.1782  -1.8662  -1.8429  -1.4866  -1.4695  -1.4677  -1.4437  -1.2249
    -0.8896  -0.7427  -0.6053  -0.5568  -0.4598  -0.3732  -0.1174  -0.0512
     0.9004   0.9621   1.1166   1.4498   1.9866   2.1540   2.2641   2.6046
     2.7510   2.8575   3.2538   3.2866

     the Fermi energy is    -1.4663 ev

!    total energy              =   -2654.13648228 Ry
     estimated scf accuracy    <       0.00000008 Ry
     smearing contrib. (-TS)   =      -0.01019715 Ry
     internal energy E=F+TS    =   -2654.12628513 Ry

     The total energy is F=E-TS. E is the sum of the following terms:
     one-electron contribution =   -6868.26485290 Ry
     hartree contribution      =    3500.38692400 Ry
     xc contribution           =    -523.43942931 Ry
     ewald contribution        =    2067.61181825 Ry
     one-center paw contrib.   =    -830.42074518 Ry

     convergence has been achieved in  20 iterations

     negative rho (up, down):  2.511E-02 0.000E+00

     Forces acting on atoms (cartesian axes, Ry/au):

     atom    1 type  1   force =     0.01834254   -0.00173535   -0.00832077
     atom    2 type  1   force =     0.00418156   -0.00121611    0.00028656
     atom    3 type  1   force =     0.00390605   -0.00163209    0.00014488
     atom    4 type  1   force =    -0.00079499   -0.00793182    0.03662504
     atom    5 type  1   force =    -0.00141677   -0.00838558   -0.03580940
     atom    6 type  1   force =    -0.00100323   -0.00460439    0.00286731
     atom    7 type  1   force =    -0.00102381   -0.00407284   -0.00260776
     atom    8 type  1   force =     0.00203663    0.00118277    0.00115987
     atom    9 type  1   force =     0.01853245   -0.00196874    0.00811323
     atom   10 type  1   force =    -0.00559798    0.00335312    0.00081149
     atom   11 type  1   force =     0.00213075    0.00094122   -0.00123721
     atom   12 type  1   force =    -0.00488350    0.00471810   -0.00315018
     atom   13 type  1   force =    -0.00456695    0.00508702    0.00104838
     atom   14 type  1   force =    -0.00201083   -0.00083548   -0.00439474
     atom   15 type  1   force =    -0.00162455   -0.00198225    0.00548302
     atom   16 type  1   force =    -0.00974011   -0.00266640    0.00211862
     atom   17 type  1   force =    -0.00932791   -0.00290915   -0.00172821
     atom   18 type  1   force =    -0.00602952    0.00380086   -0.00234566
     atom   19 type  2   force =    -0.01871960    0.00457540   -0.00036894
     atom   20 type  2   force =     0.00203402    0.00342172    0.00159308
     atom   21 type  2   force =     0.00429563   -0.00610990    0.00000384
     atom   22 type  2   force =    -0.00254059    0.00391263    0.00047716
     atom   23 type  2   force =     0.07938529    0.04229079    0.00052137
     atom   24 type  2   force =    -0.00340316   -0.00327867    0.00057943
     atom   25 type  2   force =     0.01848005   -0.09862618   -0.00106764
     atom   26 type  2   force =    -0.01109050   -0.00190089   -0.00013476
     atom   27 type  2   force =    -0.06955100    0.07657221   -0.00066800

     Total force =     0.183398     Total SCF correction =     0.000780


     Computing stress (Cartesian axis) and pressure


     negative rho (up, down):  2.511E-02 0.000E+00
          total   stress  (Ry/bohr**3)                   (kbar)     P=     -394.77
  -0.00265028   0.00002752  -0.00000008         -389.87        4.05       -0.01
   0.00002752  -0.00260545  -0.00000027            4.05     -383.28       -0.04
  -0.00000008  -0.00000027  -0.00279495           -0.01       -0.04     -411.15


     Writing all to output data dir /root/qe_scratch/pristine_SnS2.save/ :
     XML data file, charge density, pseudopotentials, collected wavefunctions
 
     init_run     :     11.49s CPU     15.07s WALL (       1 calls)
     electrons    :    131.38s CPU    161.43s WALL (       1 calls)
     forces       :      0.31s CPU      0.35s WALL (       1 calls)
     stress       :      0.78s CPU      0.81s WALL (       1 calls)

     Called by init_run:
     wfcinit      :      0.20s CPU      0.41s WALL (       1 calls)
     potinit      :     10.68s CPU     13.76s WALL (       1 calls)
     hinit0       :      0.39s CPU      0.47s WALL (       1 calls)

     Called by electrons:
     c_bands      :      5.02s CPU      5.06s WALL (      20 calls)
     sum_band     :      1.71s CPU      1.71s WALL (      20 calls)
     v_of_rho     :      1.54s CPU      2.15s WALL (      21 calls)
     newd         :      0.97s CPU      1.08s WALL (      21 calls)
                                        1.08s GPU  (      21 calls)
     PAW_pot      :    124.72s CPU    154.84s WALL (      21 calls)
     mix_rho      :      0.82s CPU      0.87s WALL (      20 calls)

     Called by c_bands:
     init_us_2    :      0.05s CPU      0.05s WALL (      41 calls)
     cegterg      :      4.85s CPU      4.87s WALL (      20 calls)

     Called by *egterg:
     cdiaghg      :      0.53s CPU      0.55s WALL (      58 calls)
                                        0.55s GPU  (      58 calls)
     h_psi        :      2.40s CPU      2.61s WALL (      59 calls)
                                        2.61s GPU  (      59 calls)
     s_psi        :      0.07s CPU      0.07s WALL (      59 calls)
     g_psi        :      0.00s CPU      0.01s WALL (      38 calls)
                                        0.01s GPU  (      38 calls)

     Called by h_psi:
     h_psi:calbec :      0.07s CPU      0.87s WALL (      59 calls)
                                        0.87s GPU  (      59 calls)
     vloc_psi     :      1.07s CPU      1.09s WALL (      59 calls)
                                        1.09s GPU  (      59 calls)
     add_vuspsi   :      0.07s CPU      0.64s WALL (      59 calls)
                                        0.64s GPU  (      59 calls)

     General routines
     calbec       :      0.07s CPU      0.26s WALL (      84 calls)
     fft          :      4.49s CPU      6.11s WALL (     296 calls)
                                        0.05s GPU  (     275 calls)
     ffts         :      2.12s CPU      2.74s WALL (      41 calls)
                                        0.00s GPU  (      20 calls)
     fftw         :      0.02s CPU      1.10s WALL (     974 calls)
                                        1.10s GPU  (     974 calls)
     interpolate  :      6.74s CPU      8.95s WALL (      21 calls)
 
     Parallel routines
 
     PWSCF        :   2m24.66s CPU   2m58.53s WALL

 
   This run was terminated on:   9:28:42   6May2026            

=------------------------------------------------------------------------------=
   JOB DONE.
=------------------------------------------------------------------------------=
Warning: ieee_invalid is signaling
Warning: ieee_divide_by_zero is signaling
Warning: ieee_inexact is signaling
FORTRAN STOP
