--------------------------------------------------------------------------
WARNING: Open MPI tried to bind a process but failed.  This is a
warning only; your job will continue, though performance may
be degraded.

  Local host:        3253031b5b37
  Application name:  /root/qe-7.3.1/bin/pw.x
  Error message:     failed to bind memory
  Location:          ../../../../../orte/mca/rtc/hwloc/rtc_hwloc.c:447

--------------------------------------------------------------------------

     Program PWSCF v.7.3.1 starts on  6May2026 at  9:23:42 

     This program is part of the open-source Quantum ESPRESSO suite
     for quantum simulation of materials; please cite
         "P. Giannozzi et al., J. Phys.:Condens. Matter 21 395502 (2009);
         "P. Giannozzi et al., J. Phys.:Condens. Matter 29 465901 (2017);
         "P. Giannozzi et al., J. Chem. Phys. 152 154105 (2020);
          URL http://www.quantum-espresso.org", 
     in publications or presentations arising from this work. More details at
     http://www.quantum-espresso.org/quote

     Parallel version (MPI & OpenMP), running on       8 processor cores
     Number of MPI processes:                 1
     Threads/MPI process:                     8

     MPI processes distributed on     1 nodes
     86466 MiB available memory on the printing compute node when the environment starts
 
     Reading input from pristine_PtSe2.in

     Current dimensions of program PWSCF are:
     Max number of different atomic species (ntypx) = 10
     Max number of k-points (npk) =  40000
     Max angular momentum in pseudopotentials (lmaxx) =  4
     file Pt.UPF: wavefunction(s)  6S 5D renormalized
     Message from routine setup:
     using ibrav=0 with symmetry is DISCOURAGED, use correct ibrav instead
 
     Subspace diagonalization in iterative solution of the eigenvalue problem:
     a serial algorithm will be used

 
     G-vector sticks info
     --------------------
     sticks:   dense  smooth     PW     G-vecs:    dense   smooth      PW
     Sum        5611    3745    931               531029   288777   36137
 
     Using Slab Decomposition
 


     bravais-lattice index     =            0
     lattice parameter (alat)  =      21.2496  a.u.
     unit-cell volume          =   13016.9821 (a.u.)^3
     number of atoms/cell      =           27
     number of atomic types    =            2
     number of electrons       =       198.00
     number of Kohn-Sham states=          119
     kinetic-energy cutoff     =      30.0000  Ry
     charge density cutoff     =     180.0000  Ry
     scf convergence threshold =      1.0E-07
     mixing beta               =       0.4000
     number of iterations used =            8  plain     mixing
     Exchange-correlation= PBE
                           (   1   4   3   4   0   0   0)

     GPU acceleration is ACTIVE.  1 visible GPUs per MPI rank


     celldm(1)=  21.249556  celldm(2)=   0.000000  celldm(3)=   0.000000
     celldm(4)=   0.000000  celldm(5)=   0.000000  celldm(6)=   0.000000

     crystal axes: (cart. coord. in units of alat)
               a(1) = (   1.000000   0.000000   0.000000 )  
               a(2) = (  -0.500000   0.866025   0.000000 )  
               a(3) = (   0.000000   0.000000   1.566499 )  

     reciprocal axes: (cart. coord. in units 2 pi/alat)
               b(1) = (  1.000000  0.577350 -0.000000 )  
               b(2) = (  0.000000  1.154700  0.000000 )  
               b(3) = (  0.000000 -0.000000  0.638366 )  


     PseudoPot. # 1 for Pt read from file:
     /root/qe_pseudos/Pt.UPF
     MD5 check sum: c5224e9cd7a5e36e81f2def9f50bb494
     Pseudo is Projector augmented-wave + core cor, Zval = 10.0
     Generated using &quot;atomic&quot; code by A. Dal Corso  v.6.3
     Shape of augmentation charge: PSQ
     Using radial grid of 1277 points,  6 beta functions with: 
                l(1) =   0
                l(2) =   0
                l(3) =   1
                l(4) =   1
                l(5) =   2
                l(6) =   2
     Q(r) pseudized with 0 coefficients 


     PseudoPot. # 2 for Se read from file:
     /root/qe_pseudos/Se.UPF
     MD5 check sum: 8e2a6847b5cb9faee9497ebb573e71ea
     Pseudo is Ultrasoft + core correction, Zval =  6.0
     Generated using &quot;atomic&quot; code by A. Dal Corso  v.6.3
     Using radial grid of 1211 points,  4 beta functions with: 
                l(1) =   0
                l(2) =   0
                l(3) =   1
                l(4) =   1
     Q(r) pseudized with 0 coefficients 


     atomic species   valence    mass     pseudopotential
     Pt               10.00   195.08400     Pt( 1.00)
     Se                6.00    78.97100     Se( 1.00)

      2 Sym. Ops. (no inversion) found



   Cartesian axes

     site n.     atom                  positions (alat units)
         1        Pt     tau(   1) = (  -0.0000007  -0.0006955   0.7830050  )
         2        Pt     tau(   2) = (   0.3331895   0.5776521   0.7833542  )
         3        Pt     tau(   3) = (   0.5000002   0.2886834   0.7833761  )
         4        Pt     tau(   4) = (  -0.1661938   0.2898651   0.7831932  )
         5        Pt     tau(   5) = (   0.6668233  -0.0006824   0.7829816  )
         6        Pt     tau(   6) = (  -0.0000001   0.5765610   0.7836960  )
         7        Pt     tau(   7) = (  -0.3331892   0.5776518   0.7833542  )
         8        Pt     tau(   8) = (   0.1661936   0.2898657   0.7831932  )
         9        Pt     tau(   9) = (   0.3331775  -0.0006829   0.7829815  )
        10        Se     tau(  10) = (   0.5000001   0.0957614   0.8983807  )
        11        Se     tau(  11) = (   0.4999999   0.6741362   0.9001092  )
        12        Se     tau(  12) = (   0.1649443   0.0962863   0.9005047  )
        13        Se     tau(  13) = (   0.5000000   0.4809248   0.6672721  )
        14        Se     tau(  14) = (   0.6665549   0.3851036   0.8988717  )
        15        Se     tau(  15) = (   0.0000000   0.1925655   0.6677244  )
        16        Se     tau(  16) = (   0.6668340   0.1928540   0.6675588  )
        17        Se     tau(  17) = (   0.8350556   0.0962862   0.9005044  )
        18        Se     tau(  18) = (   0.0000001   0.3849717   0.8996390  )
        19        Se     tau(  19) = (   0.0000001   0.7676538   0.6666947  )
        20        Se     tau(  20) = (   0.1661652   0.6729474   0.8987718  )
        21        Se     tau(  21) = (  -0.1664848   0.4821523   0.6671316  )
        22        Se     tau(  22) = (   0.1664848   0.4821523   0.6671316  )
        23        Se     tau(  23) = (   0.3335485   0.7698286   0.6677381  )
        24        Se     tau(  24) = (  -0.1661651   0.6729476   0.8987718  )
        25        Se     tau(  25) = (   0.3331662   0.1928540   0.6675585  )
        26        Se     tau(  26) = (  -0.3335485   0.7698286   0.6677380  )
        27        Se     tau(  27) = (   0.3334451   0.3851036   0.8988716  )

     number of k points=     1  Methfessel-Paxton smearing, width (Ry)=  0.0100
                       cart. coord. in units 2pi/alat
        k(    1) = (   0.0000000   0.0000000   0.0000000), wk =   2.0000000

     Dense  grid:   531029 G-vectors     FFT dimensions: (  96,  96, 144)

     Smooth grid:   288777 G-vectors     FFT dimensions: (  75,  75, 120)

     Estimated max dynamical RAM per process >       2.44 GB

     Initial potential from superposition of free atoms

     starting charge     197.9971, renormalised to     198.0000

     negative rho (up, down):  4.218E-03 0.000E+00
     Starting wfcs are  153 randomized atomic wfcs
     Checking if some PAW data can be deallocated... 

     total cpu time spent up to now is       12.9 secs

     Self-consistent Calculation

     iteration #  1     ecut=    30.00 Ry     beta= 0.40
     Davidson diagonalization with overlap
     ethr =  1.00E-02,  avg # of iterations =  4.0

     negative rho (up, down):  1.638E-02 0.000E+00

     total cpu time spent up to now is       17.8 secs

     total energy              =   -7100.09919567 Ry
     estimated scf accuracy    <       2.35178807 Ry

     iteration #  2     ecut=    30.00 Ry     beta= 0.40
     Davidson diagonalization with overlap
     ethr =  1.19E-03,  avg # of iterations =  6.0

     negative rho (up, down):  2.013E-02 0.000E+00

     total cpu time spent up to now is       22.7 secs

     total energy              =   -7100.98827431 Ry
     estimated scf accuracy    <       2.03532563 Ry

     iteration #  3     ecut=    30.00 Ry     beta= 0.40
     Davidson diagonalization with overlap
     ethr =  1.03E-03,  avg # of iterations =  2.0

     negative rho (up, down):  4.206E-02 0.000E+00

     total cpu time spent up to now is       27.5 secs

     total energy              =   -7101.15558857 Ry
     estimated scf accuracy    <       0.15499403 Ry

     iteration #  4     ecut=    30.00 Ry     beta= 0.40
     Davidson diagonalization with overlap
     ethr =  7.83E-05,  avg # of iterations = 15.0

     negative rho (up, down):  3.746E-02 0.000E+00

     total cpu time spent up to now is       32.7 secs

     total energy              =   -7101.24100336 Ry
     estimated scf accuracy    <       0.39011298 Ry

     iteration #  5     ecut=    30.00 Ry     beta= 0.40
     Davidson diagonalization with overlap
     ethr =  7.83E-05,  avg # of iterations =  2.0

     negative rho (up, down):  3.763E-02 0.000E+00

     total cpu time spent up to now is       37.4 secs

     total energy              =   -7101.23177297 Ry
     estimated scf accuracy    <       0.13778487 Ry

     iteration #  6     ecut=    30.00 Ry     beta= 0.40
     Davidson diagonalization with overlap
     ethr =  6.96E-05,  avg # of iterations =  1.0

     negative rho (up, down):  3.857E-02 0.000E+00

     total cpu time spent up to now is       42.1 secs

     total energy              =   -7101.22014723 Ry
     estimated scf accuracy    <       0.04771509 Ry

     iteration #  7     ecut=    30.00 Ry     beta= 0.40
     Davidson diagonalization with overlap
     ethr =  2.41E-05,  avg # of iterations =  6.0

     negative rho (up, down):  3.890E-02 0.000E+00

     total cpu time spent up to now is       47.0 secs

     total energy              =   -7101.22753360 Ry
     estimated scf accuracy    <       0.00913556 Ry

     iteration #  8     ecut=    30.00 Ry     beta= 0.40
     Davidson diagonalization with overlap
     ethr =  4.61E-06,  avg # of iterations =  7.0

     negative rho (up, down):  3.911E-02 0.000E+00

     total cpu time spent up to now is       52.1 secs

     total energy              =   -7101.22925252 Ry
     estimated scf accuracy    <       0.00023990 Ry

     iteration #  9     ecut=    30.00 Ry     beta= 0.40
     Davidson diagonalization with overlap
     ethr =  1.21E-07,  avg # of iterations =  5.0

     negative rho (up, down):  3.928E-02 0.000E+00

     total cpu time spent up to now is       57.0 secs

     total energy              =   -7101.22948078 Ry
     estimated scf accuracy    <       0.00005421 Ry

     iteration # 10     ecut=    30.00 Ry     beta= 0.40
     Davidson diagonalization with overlap
     ethr =  2.74E-08,  avg # of iterations =  2.0

     negative rho (up, down):  3.939E-02 0.000E+00

     total cpu time spent up to now is       61.7 secs

     total energy              =   -7101.22948591 Ry
     estimated scf accuracy    <       0.00002864 Ry

     iteration # 11     ecut=    30.00 Ry     beta= 0.40
     Davidson diagonalization with overlap
     ethr =  1.45E-08,  avg # of iterations =  2.0

     negative rho (up, down):  3.945E-02 0.000E+00

     total cpu time spent up to now is       66.4 secs

     total energy              =   -7101.22948283 Ry
     estimated scf accuracy    <       0.00003151 Ry

     iteration # 12     ecut=    30.00 Ry     beta= 0.40
     Davidson diagonalization with overlap
     ethr =  1.45E-08,  avg # of iterations =  1.0

     negative rho (up, down):  3.949E-02 0.000E+00

     total cpu time spent up to now is       71.1 secs

     total energy              =   -7101.22948510 Ry
     estimated scf accuracy    <       0.00000318 Ry

     iteration # 13     ecut=    30.00 Ry     beta= 0.40
     Davidson diagonalization with overlap
     ethr =  1.61E-09,  avg # of iterations =  4.0

     negative rho (up, down):  3.951E-02 0.000E+00

     total cpu time spent up to now is       75.9 secs

     total energy              =   -7101.22948612 Ry
     estimated scf accuracy    <       0.00000020 Ry

     iteration # 14     ecut=    30.00 Ry     beta= 0.40
     Davidson diagonalization with overlap
     ethr =  1.00E-10,  avg # of iterations =  6.0

     negative rho (up, down):  3.952E-02 0.000E+00

     total cpu time spent up to now is       80.9 secs

     total energy              =   -7101.22948629 Ry
     estimated scf accuracy    <       0.00000041 Ry

     iteration # 15     ecut=    30.00 Ry     beta= 0.40
     Davidson diagonalization with overlap
     ethr =  1.00E-10,  avg # of iterations =  1.0

     negative rho (up, down):  3.953E-02 0.000E+00

     total cpu time spent up to now is       85.6 secs

     total energy              =   -7101.22948620 Ry
     estimated scf accuracy    <       0.00000021 Ry

     iteration # 16     ecut=    30.00 Ry     beta= 0.40
     Davidson diagonalization with overlap
     ethr =  1.00E-10,  avg # of iterations =  2.0

     negative rho (up, down):  3.954E-02 0.000E+00

     total cpu time spent up to now is       90.3 secs

     End of self-consistent calculation

          k = 0.0000 0.0000 0.0000 ( 36137 PWs)   bands (ev):

   -15.4263 -14.5013 -14.4932 -14.4816 -14.4709 -14.4544 -14.4431 -13.8246
   -13.8171 -13.8155 -13.8097 -13.7522 -13.7518 -13.7440 -13.7275 -13.7204
   -13.7186 -13.6412  -6.8018  -6.7957  -6.7806  -6.7765  -6.7723  -6.7602
    -6.6827  -6.6494  -6.5071  -6.5060  -6.4859  -6.2616  -6.2595  -6.2446
    -6.2429  -6.0945  -6.0887  -6.0791  -6.0749  -6.0699  -6.0332  -5.9759
    -5.9676  -5.9611  -5.9600  -5.9517  -5.9513  -5.2763  -5.2380  -5.2376
    -5.2263  -5.2142  -5.2035  -4.8755  -4.8727  -4.8586  -4.8579  -4.3836
    -4.3814  -4.3728  -4.3663  -4.3643  -4.3568  -4.2471  -4.2466  -3.9436
    -3.9231  -3.7205  -3.7059  -3.7053  -3.7005  -3.6895  -3.6893  -3.6491
    -3.6178  -2.8211  -2.8183  -2.8182  -2.8078  -2.7987  -2.7960  -2.6625
    -2.4518  -2.4458  -2.4406  -2.4390  -2.3424  -2.3412  -2.3211  -2.3176
    -2.3163  -2.3021  -2.0761  -2.0383  -2.0379  -2.0274  -2.0163  -2.0149
    -2.0123  -1.4736  -1.4708   0.2318   0.2734   0.2786   0.2907   0.2952
     0.2980   0.3138   0.3178   0.3378   0.3440   1.0940   1.1253   1.1303
     1.1389   1.1398   1.1448   1.4693   1.4730   2.7888   3.4949

     the Fermi energy is    -0.5551 ev

!    total energy              =   -7101.22948623 Ry
     estimated scf accuracy    <       0.00000005 Ry
     smearing contrib. (-TS)   =       0.00000000 Ry
     internal energy E=F+TS    =   -7101.22948623 Ry

     The total energy is F=E-TS. E is the sum of the following terms:
     one-electron contribution =   -4187.87745486 Ry
     hartree contribution      =    2177.17635670 Ry
     xc contribution           =    -330.33981294 Ry
     ewald contribution        =    1402.34798815 Ry
     one-center paw contrib.   =   -6162.53656327 Ry

     convergence has been achieved in  16 iterations

     negative rho (up, down):  3.954E-02 0.000E+00

     Forces acting on atoms (cartesian axes, Ry/au):

     atom    1 type  1   force =     0.00000000    0.00692596    0.00391854
     atom    2 type  1   force =     0.00273528   -0.00151153    0.00026027
     atom    3 type  1   force =     0.00000000   -0.00065571   -0.00115011
     atom    4 type  1   force =    -0.00313467   -0.00855324    0.00206273
     atom    5 type  1   force =     0.00068169    0.00478078    0.00216923
     atom    6 type  1   force =     0.00000000    0.00380462   -0.00239980
     atom    7 type  1   force =    -0.00273528   -0.00151153    0.00026027
     atom    8 type  1   force =     0.00313467   -0.00855324    0.00206273
     atom    9 type  1   force =    -0.00068169    0.00478078    0.00216923
     atom   10 type  2   force =     0.00000000   -0.00064083    0.00331884
     atom   11 type  2   force =     0.00000000   -0.00362942   -0.00037205
     atom   12 type  2   force =     0.00746265    0.00108803   -0.00459459
     atom   13 type  2   force =     0.00000000    0.00221007   -0.00130947
     atom   14 type  2   force =     0.00104809    0.00016970    0.00372474
     atom   15 type  2   force =     0.00000000    0.00036662   -0.00399246
     atom   16 type  2   force =     0.00127830   -0.00178242   -0.00163550
     atom   17 type  2   force =    -0.00746265    0.00108803   -0.00459459
     atom   18 type  2   force =     0.00000000   -0.00003878    0.00357103
     atom   19 type  2   force =     0.00000000    0.00691535   -0.00003445
     atom   20 type  2   force =     0.00229113    0.00211744    0.00530688
     atom   21 type  2   force =    -0.00173148   -0.00312049   -0.00275546
     atom   22 type  2   force =     0.00173148   -0.00312049   -0.00275546
     atom   23 type  2   force =    -0.00033085   -0.00081721   -0.00531333
     atom   24 type  2   force =    -0.00229113    0.00211744    0.00530688
     atom   25 type  2   force =    -0.00127830   -0.00178242   -0.00163550
     atom   26 type  2   force =     0.00033085   -0.00081721   -0.00531333
     atom   27 type  2   force =    -0.00104809    0.00016970    0.00372474

     Total force =     0.028617     Total SCF correction =     0.000623


     Computing stress (Cartesian axis) and pressure


     negative rho (up, down):  3.954E-02 0.000E+00
          total   stress  (Ry/bohr**3)                   (kbar)     P=        0.99
   0.00001088   0.00000000   0.00000000            1.60        0.00        0.00
   0.00000000   0.00000998   0.00000081            0.00        1.47        0.12
   0.00000000   0.00000081  -0.00000062            0.00        0.12       -0.09


     Writing all to output data dir /root/qe_scratch/pristine_PtSe2.save/ :
     XML data file, charge density, pseudopotentials, collected wavefunctions
 
     init_run     :      9.59s CPU     12.34s WALL (       1 calls)
     electrons    :     64.67s CPU     77.47s WALL (       1 calls)
     forces       :      0.89s CPU      0.93s WALL (       1 calls)
     stress       :      0.52s CPU      0.55s WALL (       1 calls)

     Called by init_run:
     wfcinit      :      0.21s CPU      0.40s WALL (       1 calls)
     potinit      :      8.53s CPU     10.81s WALL (       1 calls)
     hinit0       :      0.38s CPU      0.45s WALL (       1 calls)

     Called by electrons:
     c_bands      :      4.88s CPU      4.91s WALL (      16 calls)
     sum_band     :      1.70s CPU      1.71s WALL (      16 calls)
     v_of_rho     :      1.33s CPU      1.76s WALL (      17 calls)
     newd         :      4.18s CPU      4.28s WALL (      17 calls)
                                        4.28s GPU  (      17 calls)
     PAW_pot      :     53.28s CPU     65.73s WALL (      17 calls)
     mix_rho      :      0.63s CPU      0.71s WALL (      16 calls)

     Called by c_bands:
     init_us_2    :      0.03s CPU      0.03s WALL (      33 calls)
     cegterg      :      4.78s CPU      4.80s WALL (      16 calls)

     Called by *egterg:
     cdiaghg      :      0.68s CPU      0.71s WALL (      82 calls)
                                        0.71s GPU  (      82 calls)
     h_psi        :      2.08s CPU      2.27s WALL (      83 calls)
                                        2.27s GPU  (      83 calls)
     s_psi        :      0.08s CPU      0.08s WALL (      83 calls)
     g_psi        :      0.00s CPU      0.01s WALL (      66 calls)
                                        0.01s GPU  (      66 calls)

     Called by h_psi:
     h_psi:calbec :      0.09s CPU      0.62s WALL (      83 calls)
                                        0.62s GPU  (      83 calls)
     vloc_psi     :      1.22s CPU      1.23s WALL (      83 calls)
                                        1.23s GPU  (      83 calls)
     add_vuspsi   :      0.08s CPU      0.41s WALL (      83 calls)
                                        0.41s GPU  (      83 calls)

     General routines
     calbec       :      0.09s CPU      0.26s WALL (     104 calls)
     fft          :      3.67s CPU      4.74s WALL (     244 calls)
                                        0.04s GPU  (     227 calls)
     ffts         :      3.19s CPU      4.14s WALL (      33 calls)
                                        0.00s GPU  (      16 calls)
     fftw         :      0.03s CPU      1.25s WALL (     872 calls)
                                        1.25s GPU  (     872 calls)
     interpolate  :      6.96s CPU      8.95s WALL (      17 calls)
 
     Parallel routines
 
     PWSCF        :   1m16.37s CPU   1m32.12s WALL

 
   This run was terminated on:   9:25:14   6May2026            

=------------------------------------------------------------------------------=
   JOB DONE.
=------------------------------------------------------------------------------=
Warning: ieee_invalid is signaling
Warning: ieee_divide_by_zero is signaling
Warning: ieee_inexact is signaling
FORTRAN STOP
