--------------------------------------------------------------------------
WARNING: Open MPI tried to bind a process but failed.  This is a
warning only; your job will continue, though performance may
be degraded.

  Local host:        3253031b5b37
  Application name:  /root/qe-7.3.1/bin/pw.x
  Error message:     failed to bind memory
  Location:          ../../../../../orte/mca/rtc/hwloc/rtc_hwloc.c:447

--------------------------------------------------------------------------

     Program PWSCF v.7.3.1 starts on  6May2026 at  9:18:58 

     This program is part of the open-source Quantum ESPRESSO suite
     for quantum simulation of materials; please cite
         "P. Giannozzi et al., J. Phys.:Condens. Matter 21 395502 (2009);
         "P. Giannozzi et al., J. Phys.:Condens. Matter 29 465901 (2017);
         "P. Giannozzi et al., J. Chem. Phys. 152 154105 (2020);
          URL http://www.quantum-espresso.org", 
     in publications or presentations arising from this work. More details at
     http://www.quantum-espresso.org/quote

     Parallel version (MPI & OpenMP), running on       8 processor cores
     Number of MPI processes:                 1
     Threads/MPI process:                     8

     MPI processes distributed on     1 nodes
     86651 MiB available memory on the printing compute node when the environment starts
 
     Reading input from pristine_Pd2Se4.in

     Current dimensions of program PWSCF are:
     Max number of different atomic species (ntypx) = 10
     Max number of k-points (npk) =  40000
     Max angular momentum in pseudopotentials (lmaxx) =  4
     file Pd.UPF: wavefunction(s)  5S 4D renormalized
 
     Subspace diagonalization in iterative solution of the eigenvalue problem:
     a serial algorithm will be used

 
     G-vector sticks info
     --------------------
     sticks:   dense  smooth     PW     G-vecs:    dense   smooth      PW
     Sum        6971    4641   1163               616503   335437   41925
 
     Using Slab Decomposition
 


     bravais-lattice index     =            0
     lattice parameter (alat)  =      21.7336  a.u.
     unit-cell volume          =   15116.8605 (a.u.)^3
     number of atoms/cell      =           24
     number of atomic types    =            2
     number of electrons       =       176.00
     number of Kohn-Sham states=          106
     kinetic-energy cutoff     =      30.0000  Ry
     charge density cutoff     =     180.0000  Ry
     scf convergence threshold =      1.0E-07
     mixing beta               =       0.4000
     number of iterations used =            8  plain     mixing
     Exchange-correlation= PBE
                           (   1   4   3   4   0   0   0)

     GPU acceleration is ACTIVE.  1 visible GPUs per MPI rank


     celldm(1)=  21.733591  celldm(2)=   0.000000  celldm(3)=   0.000000
     celldm(4)=   0.000000  celldm(5)=   0.000000  celldm(6)=   0.000000

     crystal axes: (cart. coord. in units of alat)
               a(1) = (   1.000000   0.000000   0.000000 )  
               a(2) = (   0.000000   1.029471   0.000000 )  
               a(3) = (   0.000000   0.000000   1.430385 )  

     reciprocal axes: (cart. coord. in units 2 pi/alat)
               b(1) = (  1.000000  0.000000  0.000000 )  
               b(2) = (  0.000000  0.971372  0.000000 )  
               b(3) = (  0.000000  0.000000  0.699113 )  


     PseudoPot. # 1 for Pd read from file:
     /root/qe_pseudos/Pd.UPF
     MD5 check sum: a1ee5d3c3f0c030a735988cf39041146
     Pseudo is Projector augmented-wave + core cor, Zval = 10.0
     Generated using &quot;atomic&quot; code by A. Dal Corso  v.6.3
     Shape of augmentation charge: PSQ
     Using radial grid of 1235 points,  6 beta functions with: 
                l(1) =   0
                l(2) =   0
                l(3) =   1
                l(4) =   1
                l(5) =   2
                l(6) =   2
     Q(r) pseudized with 0 coefficients 


     PseudoPot. # 2 for Se read from file:
     /root/qe_pseudos/Se.UPF
     MD5 check sum: 8e2a6847b5cb9faee9497ebb573e71ea
     Pseudo is Ultrasoft + core correction, Zval =  6.0
     Generated using &quot;atomic&quot; code by A. Dal Corso  v.6.3
     Using radial grid of 1211 points,  4 beta functions with: 
                l(1) =   0
                l(2) =   0
                l(3) =   1
                l(4) =   1
     Q(r) pseudized with 0 coefficients 


     atomic species   valence    mass     pseudopotential
     Pd               10.00   106.42000     Pd( 1.00)
     Se                6.00    78.97100     Se( 1.00)

     No symmetry found



   Cartesian axes

     site n.     atom                  positions (alat units)
         1        Pd     tau(   1) = (   0.2484615   1.0279893   0.7200311  )
         2        Pd     tau(   2) = (   0.5003338   0.7718333   0.7154025  )
         3        Pd     tau(   3) = (   0.7498827   0.5146490   0.7152116  )
         4        Pd     tau(   4) = (   0.5013392   0.2576406   0.7196320  )
         5        Pd     tau(   5) = (   1.0003098   0.7724478   0.7150957  )
         6        Pd     tau(   6) = (   0.2491264   0.5154440   0.7144858  )
         7        Pd     tau(   7) = (   0.7496193   1.0294147   0.7153475  )
         8        Pd     tau(   8) = (   0.9987406   0.2585334   0.7145630  )
         9        Se     tau(   9) = (   0.9448965   0.9685577   0.7815897  )
        10        Se     tau(  10) = (   0.8048950   0.7103862   0.7820197  )
        11        Se     tau(  11) = (   0.5543739   0.5757293   0.6488772  )
        12        Se     tau(  12) = (   0.0549723   0.0626383   0.6489357  )
        13        Se     tau(  13) = (   0.6948323   0.3189690   0.6482211  )
        14        Se     tau(  14) = (   0.9451287   0.4539905   0.7818877  )
        15        Se     tau(  15) = (   0.4439470   0.4539776   0.7837275  )
        16        Se     tau(  16) = (   0.5540043   0.0613955   0.6494779  )
        17        Se     tau(  17) = (   0.3119449   0.1889663   0.7921914  )
        18        Se     tau(  18) = (   0.6955749   0.8335496   0.6482832  )
        19        Se     tau(  19) = (   0.1956590   0.8340087   0.6480232  )
        20        Se     tau(  20) = (   0.4457251   0.9663943   0.7833186  )
        21        Se     tau(  21) = (   0.3043922   0.7106793   0.7815240  )
        22        Se     tau(  22) = (   0.0543077   0.5768924   0.6477451  )
        23        Se     tau(  23) = (   0.1944398   0.3193564   0.6541549  )
        24        Se     tau(  24) = (   0.8042049   0.1960126   0.7816288  )

     number of k points=     1  Methfessel-Paxton smearing, width (Ry)=  0.0100
                       cart. coord. in units 2pi/alat
        k(    1) = (   0.0000000   0.0000000   0.0000000), wk =   2.0000000

     Dense  grid:   616503 G-vectors     FFT dimensions: (  96,  96, 135)

     Smooth grid:   335437 G-vectors     FFT dimensions: (  75,  80, 120)

     Estimated max dynamical RAM per process >       2.72 GB

     Initial potential from superposition of free atoms

     starting charge     175.9942, renormalised to     176.0000

     negative rho (up, down):  3.089E-02 0.000E+00
     Starting wfcs are  136 randomized atomic wfcs
     Checking if some PAW data can be deallocated... 

     total cpu time spent up to now is       10.9 secs

     Self-consistent Calculation

     iteration #  1     ecut=    30.00 Ry     beta= 0.40
     Davidson diagonalization with overlap
     ethr =  1.00E-02,  avg # of iterations =  3.0

     Threshold (ethr) on eigenvalues was too large:
     Diagonalizing with lowered threshold

     Davidson diagonalization with overlap
     ethr =  2.85E-04,  avg # of iterations =  3.0

     negative rho (up, down):  3.756E-02 0.000E+00

     total cpu time spent up to now is       15.4 secs

     total energy              =   -2982.03866385 Ry
     estimated scf accuracy    <       0.59078912 Ry

     iteration #  2     ecut=    30.00 Ry     beta= 0.40
     Davidson diagonalization with overlap
     ethr =  3.36E-04,  avg # of iterations =  2.0

     negative rho (up, down):  4.484E-02 0.000E+00

     total cpu time spent up to now is       19.7 secs

     total energy              =   -2982.08522762 Ry
     estimated scf accuracy    <       0.27279508 Ry

     iteration #  3     ecut=    30.00 Ry     beta= 0.40
     Davidson diagonalization with overlap
     ethr =  1.55E-04,  avg # of iterations =  6.0

     negative rho (up, down):  5.233E-02 0.000E+00

     total cpu time spent up to now is       24.2 secs

     total energy              =   -2982.11132008 Ry
     estimated scf accuracy    <       0.06154575 Ry

     iteration #  4     ecut=    30.00 Ry     beta= 0.40
     Davidson diagonalization with overlap
     ethr =  3.50E-05,  avg # of iterations =  4.0

     negative rho (up, down):  5.536E-02 0.000E+00

     total cpu time spent up to now is       28.6 secs

     total energy              =   -2982.11595260 Ry
     estimated scf accuracy    <       0.00248790 Ry

     iteration #  5     ecut=    30.00 Ry     beta= 0.40
     Davidson diagonalization with overlap
     ethr =  1.41E-06,  avg # of iterations = 12.0

     negative rho (up, down):  5.720E-02 0.000E+00

     total cpu time spent up to now is       33.3 secs

     total energy              =   -2982.11631222 Ry
     estimated scf accuracy    <       0.00147616 Ry

     iteration #  6     ecut=    30.00 Ry     beta= 0.40
     Davidson diagonalization with overlap
     ethr =  8.39E-07,  avg # of iterations =  2.0

     negative rho (up, down):  5.831E-02 0.000E+00

     total cpu time spent up to now is       37.5 secs

     total energy              =   -2982.11653824 Ry
     estimated scf accuracy    <       0.00025200 Ry

     iteration #  7     ecut=    30.00 Ry     beta= 0.40
     Davidson diagonalization with overlap
     ethr =  1.43E-07,  avg # of iterations =  2.0

     negative rho (up, down):  5.903E-02 0.000E+00

     total cpu time spent up to now is       41.7 secs

     total energy              =   -2982.11657241 Ry
     estimated scf accuracy    <       0.00007024 Ry

     iteration #  8     ecut=    30.00 Ry     beta= 0.40
     Davidson diagonalization with overlap
     ethr =  3.99E-08,  avg # of iterations =  2.0

     negative rho (up, down):  5.947E-02 0.000E+00

     total cpu time spent up to now is       46.0 secs

     total energy              =   -2982.11658144 Ry
     estimated scf accuracy    <       0.00000921 Ry

     iteration #  9     ecut=    30.00 Ry     beta= 0.40
     Davidson diagonalization with overlap
     ethr =  5.23E-09,  avg # of iterations =  2.0

     negative rho (up, down):  5.970E-02 0.000E+00

     total cpu time spent up to now is       50.2 secs

     total energy              =   -2982.11658305 Ry
     estimated scf accuracy    <       0.00000352 Ry

     iteration # 10     ecut=    30.00 Ry     beta= 0.40
     Davidson diagonalization with overlap
     ethr =  2.00E-09,  avg # of iterations =  2.0

     negative rho (up, down):  5.988E-02 0.000E+00

     total cpu time spent up to now is       54.5 secs

     total energy              =   -2982.11658396 Ry
     estimated scf accuracy    <       0.00000128 Ry

     iteration # 11     ecut=    30.00 Ry     beta= 0.40
     Davidson diagonalization with overlap
     ethr =  7.28E-10,  avg # of iterations =  2.0

     negative rho (up, down):  5.998E-02 0.000E+00

     total cpu time spent up to now is       58.7 secs

     total energy              =   -2982.11658415 Ry
     estimated scf accuracy    <       0.00000020 Ry

     iteration # 12     ecut=    30.00 Ry     beta= 0.40
     Davidson diagonalization with overlap
     ethr =  1.11E-10,  avg # of iterations =  2.0

     negative rho (up, down):  6.013E-02 0.000E+00

     total cpu time spent up to now is       63.0 secs

     End of self-consistent calculation

          k = 0.0000 0.0000 0.0000 ( 41925 PWs)   bands (ev):

   -16.9205 -16.4710 -16.4672 -16.4312 -16.3740 -16.2948 -16.1819 -15.9259
   -14.4446 -14.3857 -14.2080 -14.1483 -14.1447 -14.0954 -14.0793 -13.7962
    -7.9685  -7.7997  -7.7861  -7.7218  -7.7005  -7.5780  -7.5588  -6.9943
    -6.8693  -6.8543  -6.7286  -6.6721  -6.6293  -6.6084  -6.4516  -6.4372
    -6.4160  -6.3546  -6.2262  -6.0373  -6.0177  -5.9939  -5.8198  -5.8041
    -5.6636  -5.6482  -5.3784  -5.2521  -5.2419  -5.1988  -5.1955  -5.1296
    -4.9904  -4.9815  -4.7810  -4.7604  -4.7478  -4.7035  -4.5933  -4.4642
    -4.3619  -4.3537  -4.3297  -4.2999  -4.2906  -4.2485  -4.1178  -4.1162
    -3.9801  -3.9647  -3.8178  -3.7952  -3.7810  -3.7684  -3.6699  -3.6657
    -3.6279  -3.6069  -3.5978  -3.5813  -3.5631  -3.5011  -3.4901  -3.3184
    -3.2393  -3.2268  -3.1808  -2.8010  -2.7907  -2.6811  -2.6776  -2.6715
    -1.1650  -1.1031  -1.0759  -1.0098  -0.9000  -0.8559  -0.7538  -0.6282
    -0.4545  -0.3331  -0.3002   0.0370   0.0601   0.2178   0.2579   0.4270
     1.5676   2.2875

     the Fermi energy is    -1.8342 ev

!    total energy              =   -2982.11658419 Ry
     estimated scf accuracy    <       0.00000003 Ry
     smearing contrib. (-TS)   =       0.00000000 Ry
     internal energy E=F+TS    =   -2982.11658419 Ry

     The total energy is F=E-TS. E is the sum of the following terms:
     one-electron contribution =   -2912.58543461 Ry
     hartree contribution      =    1528.78882129 Ry
     xc contribution           =    -275.25559161 Ry
     ewald contribution        =     804.49274159 Ry
     one-center paw contrib.   =   -2127.55712086 Ry

     convergence has been achieved in  12 iterations

     negative rho (up, down):  6.013E-02 0.000E+00

     Forces acting on atoms (cartesian axes, Ry/au):

     atom    1 type  1   force =     0.00856385    0.00143846   -0.00391926
     atom    2 type  1   force =    -0.00087901   -0.00175507   -0.00076771
     atom    3 type  1   force =    -0.00034322    0.00054949   -0.00035558
     atom    4 type  1   force =    -0.00143147   -0.00673967   -0.00382963
     atom    5 type  1   force =    -0.00144894   -0.00033905   -0.00052966
     atom    6 type  1   force =     0.00180706   -0.00160049    0.00464674
     atom    7 type  1   force =    -0.00106572   -0.00048622   -0.00092012
     atom    8 type  1   force =     0.00315603   -0.00205444    0.00504821
     atom    9 type  2   force =     0.00205973    0.00023815    0.00286063
     atom   10 type  2   force =    -0.00119698    0.00219510    0.00259250
     atom   11 type  2   force =    -0.00298653   -0.00166587   -0.00142154
     atom   12 type  2   force =    -0.00015462   -0.00235028   -0.00044401
     atom   13 type  2   force =     0.00080570    0.00038816   -0.00156018
     atom   14 type  2   force =     0.00090237    0.00114691    0.00254433
     atom   15 type  2   force =     0.00366539    0.00191817    0.00166861
     atom   16 type  2   force =    -0.00146289    0.00131819   -0.00018450
     atom   17 type  2   force =    -0.02562481    0.02444160   -0.01543198
     atom   18 type  2   force =     0.00134314   -0.00135762   -0.00226128
     atom   19 type  2   force =    -0.00078808   -0.00050898   -0.00115713
     atom   20 type  2   force =     0.00127133    0.00208663    0.00347901
     atom   21 type  2   force =    -0.00054741    0.00180013    0.00120727
     atom   22 type  2   force =    -0.00217081   -0.00121454   -0.00304907
     atom   23 type  2   force =     0.01927986   -0.01873766    0.01037739
     atom   24 type  2   force =    -0.00275396    0.00128889    0.00140696

     Total force =     0.051901     Total SCF correction =     0.000212


     Computing stress (Cartesian axis) and pressure


     negative rho (up, down):  6.013E-02 0.000E+00
          total   stress  (Ry/bohr**3)                   (kbar)     P=       -3.12
  -0.00003503   0.00000207  -0.00000364           -5.15        0.30       -0.54
   0.00000207  -0.00001812   0.00000636            0.30       -2.67        0.94
  -0.00000364   0.00000636  -0.00001044           -0.54        0.94       -1.54


     Writing all to output data dir /root/qe_scratch/pristine_Pd2Se4.save/ :
     XML data file, charge density, pseudopotentials, collected wavefunctions
 
     init_run     :      8.10s CPU     10.33s WALL (       1 calls)
     electrons    :     43.50s CPU     52.15s WALL (       1 calls)
     forces       :      1.01s CPU      1.04s WALL (       1 calls)
     stress       :      0.52s CPU      0.54s WALL (       1 calls)

     Called by init_run:
     wfcinit      :      0.22s CPU      0.39s WALL (       1 calls)
     potinit      :      7.00s CPU      8.83s WALL (       1 calls)
     hinit0       :      0.37s CPU      0.45s WALL (       1 calls)

     Called by electrons:
     c_bands      :      3.44s CPU      3.46s WALL (      13 calls)
     sum_band     :      0.81s CPU      0.83s WALL (      13 calls)
     v_of_rho     :      1.02s CPU      1.38s WALL (      13 calls)
     newd         :      3.70s CPU      3.77s WALL (      13 calls)
                                        3.77s GPU  (      13 calls)
     PAW_pot      :     35.51s CPU     43.97s WALL (      13 calls)
     mix_rho      :      0.49s CPU      0.55s WALL (      13 calls)

     Called by c_bands:
     init_us_2    :      0.03s CPU      0.03s WALL (      27 calls)
     cegterg      :      3.37s CPU      3.38s WALL (      13 calls)

     Called by *egterg:
     cdiaghg      :      0.42s CPU      0.45s WALL (      56 calls)
                                        0.45s GPU  (      56 calls)
     h_psi        :      1.33s CPU      1.48s WALL (      58 calls)
                                        1.48s GPU  (      58 calls)
     s_psi        :      0.05s CPU      0.05s WALL (      58 calls)
     g_psi        :      0.00s CPU      0.01s WALL (      44 calls)
                                        0.01s GPU  (      44 calls)

     Called by h_psi:
     h_psi:calbec :      0.11s CPU      0.51s WALL (      58 calls)
                                        0.51s GPU  (      58 calls)
     vloc_psi     :      0.68s CPU      0.69s WALL (      58 calls)
                                        0.69s GPU  (      58 calls)
     add_vuspsi   :      0.05s CPU      0.28s WALL (      58 calls)
                                        0.28s GPU  (      58 calls)

     General routines
     calbec       :      0.11s CPU      0.25s WALL (      76 calls)
     fft          :      3.39s CPU      4.46s WALL (     193 calls)
                                        0.03s GPU  (     180 calls)
     ffts         :      1.97s CPU      2.39s WALL (      26 calls)
                                        0.00s GPU  (      13 calls)
     fftw         :      0.02s CPU      0.68s WALL (     577 calls)
                                        0.68s GPU  (     577 calls)
     interpolate  :      5.45s CPU      6.91s WALL (      13 calls)
 
     Parallel routines
 
     PWSCF        :     53.77s CPU   1m 4.85s WALL

 
   This run was terminated on:   9:20: 3   6May2026            

=------------------------------------------------------------------------------=
   JOB DONE.
=------------------------------------------------------------------------------=
Warning: ieee_invalid is signaling
Warning: ieee_divide_by_zero is signaling
Warning: ieee_inexact is signaling
FORTRAN STOP
