--------------------------------------------------------------------------
WARNING: Open MPI tried to bind a process but failed.  This is a
warning only; your job will continue, though performance may
be degraded.

  Local host:        3253031b5b37
  Application name:  /root/qe-7.3.1/bin/pw.x
  Error message:     failed to bind memory
  Location:          ../../../../../orte/mca/rtc/hwloc/rtc_hwloc.c:447

--------------------------------------------------------------------------

     Program PWSCF v.7.3.1 starts on  6May2026 at 11:50:20 

     This program is part of the open-source Quantum ESPRESSO suite
     for quantum simulation of materials; please cite
         "P. Giannozzi et al., J. Phys.:Condens. Matter 21 395502 (2009);
         "P. Giannozzi et al., J. Phys.:Condens. Matter 29 465901 (2017);
         "P. Giannozzi et al., J. Chem. Phys. 152 154105 (2020);
          URL http://www.quantum-espresso.org", 
     in publications or presentations arising from this work. More details at
     http://www.quantum-espresso.org/quote

     Parallel version (MPI & OpenMP), running on       8 processor cores
     Number of MPI processes:                 1
     Threads/MPI process:                     8

     MPI processes distributed on     1 nodes
     84789 MiB available memory on the printing compute node when the environment starts
 
     Reading input from pristine_ZrSe2.in

     Current dimensions of program PWSCF are:
     Max number of different atomic species (ntypx) = 10
     Max number of k-points (npk) =  40000
     Max angular momentum in pseudopotentials (lmaxx) =  4
     file Zr.UPF: wavefunction(s)  4S 4P renormalized
 
     Subspace diagonalization in iterative solution of the eigenvalue problem:
     a serial algorithm will be used

 
     G-vector sticks info
     --------------------
     sticks:   dense  smooth     PW     G-vecs:    dense   smooth      PW
     Sum        5731    3829    955               560517   305291   38189
 
     Using Slab Decomposition
 


     bravais-lattice index     =            0
     lattice parameter (alat)  =      21.5136  a.u.
     unit-cell volume          =   13748.1444 (a.u.)^3
     number of atoms/cell      =           27
     number of atomic types    =            2
     number of electrons       =       216.00
     number of Kohn-Sham states=          130
     kinetic-energy cutoff     =      30.0000  Ry
     charge density cutoff     =     180.0000  Ry
     scf convergence threshold =      1.0E-07
     mixing beta               =       0.4000
     number of iterations used =            8  plain     mixing
     Exchange-correlation= SLA  PW   PBX  PBC
                           (   1   4   3   4   0   0   0)

     GPU acceleration is ACTIVE.  1 visible GPUs per MPI rank


     celldm(1)=  21.513613  celldm(2)=   0.000000  celldm(3)=   0.000000
     celldm(4)=   0.000000  celldm(5)=   0.000000  celldm(6)=   0.000000

     crystal axes: (cart. coord. in units of alat)
               a(1) = (   1.000000   0.000000   0.000000 )  
               a(2) = (  -0.500000   0.866025   0.000000 )  
               a(3) = (   0.000000   0.000000   1.594312 )  

     reciprocal axes: (cart. coord. in units 2 pi/alat)
               b(1) = (  1.000000  0.577350 -0.000000 )  
               b(2) = (  0.000000  1.154701  0.000000 )  
               b(3) = (  0.000000 -0.000000  0.627230 )  


     PseudoPot. # 1 for Se read from file:
     /root/qe_pseudos/Se.UPF
     MD5 check sum: 8e2a6847b5cb9faee9497ebb573e71ea
     Pseudo is Ultrasoft + core correction, Zval =  6.0
     Generated using &quot;atomic&quot; code by A. Dal Corso  v.6.3
     Using radial grid of 1211 points,  4 beta functions with: 
                l(1) =   0
                l(2) =   0
                l(3) =   1
                l(4) =   1
     Q(r) pseudized with 0 coefficients 


     PseudoPot. # 2 for Zr read from file:
     /root/qe_pseudos/Zr.UPF
     MD5 check sum: 02112c41713a0468aff2bb39ef194e36
     Pseudo is Projector augmented-wave + core cor, Zval = 12.0
     Generated using &quot;atomic&quot; code by A. Dal Corso  v.6.2.2
     Shape of augmentation charge: PSQ
     Using radial grid of 1225 points,  6 beta functions with: 
                l(1) =   0
                l(2) =   0
                l(3) =   1
                l(4) =   1
                l(5) =   2
                l(6) =   2
     Q(r) pseudized with 0 coefficients 


     atomic species   valence    mass     pseudopotential
     Se                6.00    78.97100     Se( 1.00)
     Zr               12.00    91.22400     Zr( 1.00)

     No symmetry found



   Cartesian axes

     site n.     atom                  positions (alat units)
         1        Se     tau(   1) = (   0.5008504   0.6755190   0.9341607  )
         2        Se     tau(   2) = (   0.4985296   0.4797638   0.6585824  )
         3        Se     tau(   3) = (   0.6692530   0.3844870   0.9345886  )
         4        Se     tau(   4) = (   0.6643225   0.1886702   0.6568414  )
         5        Se     tau(   5) = (   0.8352656   0.0978186   0.9361823  )
         6        Se     tau(   6) = (  -0.0035409   0.7685206   0.6527655  )
         7        Se     tau(   7) = (   0.1672262   0.6712411   0.9412550  )
         8        Se     tau(   8) = (   0.1639800   0.4843220   0.6602962  )
         9        Se     tau(   9) = (   0.3295940   0.7686735   0.6568259  )
        10        Se     tau(  10) = (   0.3350196   0.1896549   0.6596468  )
        11        Se     tau(  11) = (   0.3342579   0.3833377   0.9324648  )
        12        Se     tau(  12) = (  -0.3312568   0.7688237   0.6578308  )
        13        Se     tau(  13) = (  -0.1674573   0.6743746   0.9364750  )
        14        Se     tau(  14) = (  -0.1664352   0.4839640   0.6572083  )
        15        Se     tau(  15) = (  -0.0006907   0.3813227   0.9381130  )
        16        Se     tau(  16) = (   0.0000023   0.1923558   0.6599602  )
        17        Se     tau(  17) = (   0.1619101   0.0985095   0.9393164  )
        18        Se     tau(  18) = (   0.4984496   0.0958192   0.9397555  )
        19        Zr     tau(  19) = (   0.1698476   0.2903193   0.7895119  )
        20        Zr     tau(  20) = (   0.3436810  -0.0030672   0.7980990  )
        21        Zr     tau(  21) = (   0.0033232   0.5853339   0.7997735  )
        22        Zr     tau(  22) = (  -0.3325695   0.5774849   0.7941307  )
        23        Zr     tau(  23) = (   0.6647094  -0.0014792   0.8024383  )
        24        Zr     tau(  24) = (   0.5017349   0.2888991   0.7959513  )
        25        Zr     tau(  25) = (  -0.1716639   0.2916542   0.7894918  )
        26        Zr     tau(  26) = (   0.3330230   0.5804825   0.7963142  )
        27        Zr     tau(  27) = (   0.0000481  -0.0048824   0.7895810  )

     number of k points=     1  Methfessel-Paxton smearing, width (Ry)=  0.0100
                       cart. coord. in units 2pi/alat
        k(    1) = (   0.0000000   0.0000000   0.0000000), wk =   2.0000000

     Dense  grid:   560517 G-vectors     FFT dimensions: (  96,  96, 150)

     Smooth grid:   305291 G-vectors     FFT dimensions: (  75,  75, 120)

     Estimated max dynamical RAM per process >       2.58 GB

     Check: negative core charge=   -0.000002

     Initial potential from superposition of free atoms

     starting charge     215.9793, renormalised to     216.0000

     negative rho (up, down):  2.014E-02 0.000E+00
     Starting wfcs are  189 randomized atomic wfcs
     Checking if some PAW data can be deallocated... 

     total cpu time spent up to now is       13.1 secs

     Self-consistent Calculation

     iteration #  1     ecut=    30.00 Ry     beta= 0.40
     Davidson diagonalization with overlap
     ethr =  1.00E-02,  avg # of iterations =  2.0

     Threshold (ethr) on eigenvalues was too large:
     Diagonalizing with lowered threshold

     Davidson diagonalization with overlap
     ethr =  6.34E-04,  avg # of iterations =  2.0

     negative rho (up, down):  2.020E-02 0.000E+00

     total cpu time spent up to now is       18.2 secs

     total energy              =   -3141.72963698 Ry
     estimated scf accuracy    <       1.40800303 Ry

     iteration #  2     ecut=    30.00 Ry     beta= 0.40
     Davidson diagonalization with overlap
     ethr =  6.52E-04,  avg # of iterations =  3.0

     negative rho (up, down):  2.030E-02 0.000E+00

     total cpu time spent up to now is       22.9 secs

     total energy              =   -3141.87415363 Ry
     estimated scf accuracy    <       0.33216883 Ry

     iteration #  3     ecut=    30.00 Ry     beta= 0.40
     Davidson diagonalization with overlap
     ethr =  1.54E-04,  avg # of iterations =  2.0

     negative rho (up, down):  2.031E-02 0.000E+00

     total cpu time spent up to now is       27.7 secs

     total energy              =   -3141.94986681 Ry
     estimated scf accuracy    <       0.14679830 Ry

     iteration #  4     ecut=    30.00 Ry     beta= 0.40
     Davidson diagonalization with overlap
     ethr =  6.80E-05,  avg # of iterations =  2.0

     negative rho (up, down):  2.029E-02 0.000E+00

     total cpu time spent up to now is       32.4 secs

     total energy              =   -3141.96713219 Ry
     estimated scf accuracy    <       0.02904966 Ry

     iteration #  5     ecut=    30.00 Ry     beta= 0.40
     Davidson diagonalization with overlap
     ethr =  1.34E-05,  avg # of iterations =  2.0

     negative rho (up, down):  2.033E-02 0.000E+00

     total cpu time spent up to now is       37.1 secs

     total energy              =   -3141.97168260 Ry
     estimated scf accuracy    <       0.00893122 Ry

     iteration #  6     ecut=    30.00 Ry     beta= 0.40
     Davidson diagonalization with overlap
     ethr =  4.13E-06,  avg # of iterations =  4.0

     negative rho (up, down):  2.033E-02 0.000E+00

     total cpu time spent up to now is       41.8 secs

     total energy              =   -3141.97249099 Ry
     estimated scf accuracy    <       0.00377703 Ry

     iteration #  7     ecut=    30.00 Ry     beta= 0.40
     Davidson diagonalization with overlap
     ethr =  1.75E-06,  avg # of iterations = 12.0

     negative rho (up, down):  2.031E-02 0.000E+00

     total cpu time spent up to now is       46.8 secs

     total energy              =   -3141.97279240 Ry
     estimated scf accuracy    <       0.00068122 Ry

     iteration #  8     ecut=    30.00 Ry     beta= 0.40
     Davidson diagonalization with overlap
     ethr =  3.15E-07,  avg # of iterations =  5.0

     negative rho (up, down):  2.030E-02 0.000E+00

     total cpu time spent up to now is       51.6 secs

     total energy              =   -3141.97286357 Ry
     estimated scf accuracy    <       0.00005731 Ry

     iteration #  9     ecut=    30.00 Ry     beta= 0.40
     Davidson diagonalization with overlap
     ethr =  2.65E-08,  avg # of iterations =  5.0

     negative rho (up, down):  2.029E-02 0.000E+00

     total cpu time spent up to now is       56.4 secs

     total energy              =   -3141.97288199 Ry
     estimated scf accuracy    <       0.00002168 Ry

     iteration # 10     ecut=    30.00 Ry     beta= 0.40
     Davidson diagonalization with overlap
     ethr =  1.00E-08,  avg # of iterations =  2.0

     negative rho (up, down):  2.029E-02 0.000E+00

     total cpu time spent up to now is       61.1 secs

     total energy              =   -3141.97288427 Ry
     estimated scf accuracy    <       0.00000305 Ry

     iteration # 11     ecut=    30.00 Ry     beta= 0.40
     Davidson diagonalization with overlap
     ethr =  1.41E-09,  avg # of iterations =  5.0

     negative rho (up, down):  2.028E-02 0.000E+00

     total cpu time spent up to now is       66.0 secs

     total energy              =   -3141.97288503 Ry
     estimated scf accuracy    <       0.00000167 Ry

     iteration # 12     ecut=    30.00 Ry     beta= 0.40
     Davidson diagonalization with overlap
     ethr =  7.73E-10,  avg # of iterations =  2.0

     negative rho (up, down):  2.028E-02 0.000E+00

     total cpu time spent up to now is       70.6 secs

     End of self-consistent calculation

          k = 0.0000 0.0000 0.0000 ( 38189 PWs)   bands (ev):

   -51.0190 -50.9469 -50.9067 -50.9036 -50.8997 -50.8333 -50.7745 -50.7570
   -50.7201 -29.0245 -29.0175 -28.9783 -28.9623 -28.9474 -28.9332 -28.9215
   -28.9179 -28.9126 -28.9072 -28.9047 -28.8777 -28.8565 -28.8543 -28.8463
   -28.8275 -28.7889 -28.7878 -28.7794 -28.7687 -28.7528 -28.7321 -28.7231
   -28.7104 -28.6958 -28.6648 -28.6615 -14.1007 -13.5060 -13.4928 -13.4814
   -13.4246 -13.3947 -13.3765 -13.2790 -13.2241 -13.2057 -13.1616 -13.1531
   -13.0936 -13.0786 -13.0510 -12.9204 -12.6902 -12.5682  -5.2682  -5.0926
    -5.0768  -5.0593  -5.0073  -4.9828  -4.9686  -4.6944  -4.6770  -4.6154
    -4.5971  -4.5824  -4.5488  -4.4541  -4.4387  -4.4350  -4.4094  -4.3978
    -4.3264  -3.9621  -3.9555  -3.9191  -3.8280  -3.8228  -3.7475  -3.7351
    -3.7128  -3.5884  -3.5406  -3.5257  -3.5036  -3.4629  -3.4324  -3.3349
    -3.2776  -3.2449  -3.2248  -3.1275  -3.1216  -2.5117  -2.4304  -2.3709
    -2.3644  -2.3334  -2.2658  -2.2603  -2.2230  -2.2035  -2.1828  -2.1202
    -2.0657  -2.0447  -1.1455  -1.1111  -0.7109  -0.6659  -0.6234  -0.5323
    -0.5060  -0.4876  -0.1136  -0.0894   0.4139   0.6033   0.6120   1.1148
     1.1194   1.1230   1.1491   1.1528   1.2025   1.2462   1.2800   1.2891
     1.3348   1.4038

     the Fermi energy is    -0.9130 ev

!    total energy              =   -3141.97288530 Ry
     estimated scf accuracy    <       0.00000008 Ry
     smearing contrib. (-TS)   =       0.00374650 Ry
     internal energy E=F+TS    =   -3141.97663181 Ry

     The total energy is F=E-TS. E is the sum of the following terms:
     one-electron contribution =   -5046.32848755 Ry
     hartree contribution      =    2535.69402315 Ry
     xc contribution           =    -277.67425777 Ry
     ewald contribution        =    1536.19964318 Ry
     one-center paw contrib.   =   -1889.86755281 Ry

     convergence has been achieved in  12 iterations

     negative rho (up, down):  2.028E-02 0.000E+00

     Forces acting on atoms (cartesian axes, Ry/au):

     atom    1 type  1   force =    -0.00345624   -0.00539174   -0.00335811
     atom    2 type  1   force =     0.00001645   -0.00150285    0.00180552
     atom    3 type  1   force =    -0.00521943    0.00044049   -0.00365554
     atom    4 type  1   force =    -0.00053825   -0.01334375    0.00219106
     atom    5 type  1   force =    -0.02142982   -0.01096212   -0.02108670
     atom    6 type  1   force =     0.00199475    0.00164371    0.00767594
     atom    7 type  1   force =    -0.00157859   -0.00059453   -0.00619515
     atom    8 type  1   force =    -0.00083922    0.00969894   -0.00661093
     atom    9 type  1   force =    -0.01209527   -0.00203075    0.00063140
     atom   10 type  1   force =     0.00374402   -0.00051143   -0.00574340
     atom   11 type  1   force =     0.00450947    0.00150319   -0.00249794
     atom   12 type  1   force =    -0.00391861   -0.00089636   -0.00124845
     atom   13 type  1   force =    -0.00331521   -0.00063500   -0.00105903
     atom   14 type  1   force =     0.00019833   -0.00165189    0.00074788
     atom   15 type  1   force =    -0.00446110    0.00881992   -0.03164974
     atom   16 type  1   force =     0.00049310   -0.00054778   -0.01010560
     atom   17 type  1   force =    -0.00192496   -0.00273970   -0.03594450
     atom   18 type  1   force =    -0.00012985   -0.00442223   -0.00432191
     atom   19 type  2   force =    -0.01856401   -0.02089786    0.03358019
     atom   20 type  2   force =    -0.02745624    0.01467268    0.01372657
     atom   21 type  2   force =    -0.00120732   -0.04046629    0.01349646
     atom   22 type  2   force =     0.00165301    0.00267190    0.00059266
     atom   23 type  2   force =     0.04008037    0.03103349    0.00730190
     atom   24 type  2   force =    -0.00945137    0.01540784    0.00350443
     atom   25 type  2   force =     0.02759986    0.00341296    0.01976487
     atom   26 type  2   force =     0.00958739   -0.00872579    0.00491845
     atom   27 type  2   force =     0.02570872    0.02601494    0.02353968

     Total force =     0.124350     Total SCF correction =     0.000577


     Computing stress (Cartesian axis) and pressure


     negative rho (up, down):  2.028E-02 0.000E+00
          total   stress  (Ry/bohr**3)                   (kbar)     P=       -5.87
  -0.00001511  -0.00000412  -0.00000576           -2.22       -0.61       -0.85
  -0.00000412  -0.00001346  -0.00000104           -0.61       -1.98       -0.15
  -0.00000576  -0.00000104  -0.00009106           -0.85       -0.15      -13.40


     Writing all to output data dir /root/qe_scratch/pristine_ZrSe2.save/ :
     XML data file, charge density, pseudopotentials, collected wavefunctions
 
     init_run     :      9.52s CPU     12.58s WALL (       1 calls)
     electrons    :     47.92s CPU     57.55s WALL (       1 calls)
     forces       :      0.96s CPU      1.00s WALL (       1 calls)
     stress       :      0.53s CPU      0.59s WALL (       1 calls)

     Called by init_run:
     wfcinit      :      0.22s CPU      0.42s WALL (       1 calls)
     potinit      :      8.44s CPU     11.05s WALL (       1 calls)
     hinit0       :      0.38s CPU      0.46s WALL (       1 calls)

     Called by electrons:
     c_bands      :      3.96s CPU      3.97s WALL (      13 calls)
     sum_band     :      0.94s CPU      0.94s WALL (      13 calls)
     v_of_rho     :      1.08s CPU      1.39s WALL (      13 calls)
     newd         :      3.29s CPU      3.38s WALL (      13 calls)
                                        3.38s GPU  (      13 calls)
     PAW_pot      :     39.80s CPU     49.53s WALL (      13 calls)
     mix_rho      :      0.45s CPU      0.50s WALL (      13 calls)

     Called by c_bands:
     init_us_2    :      0.03s CPU      0.03s WALL (      27 calls)
     cegterg      :      3.87s CPU      3.88s WALL (      13 calls)

     Called by *egterg:
     cdiaghg      :      0.51s CPU      0.56s WALL (      60 calls)
                                        0.56s GPU  (      60 calls)
     h_psi        :      1.86s CPU      2.04s WALL (      62 calls)
                                        2.04s GPU  (      62 calls)
     s_psi        :      0.06s CPU      0.06s WALL (      62 calls)
     g_psi        :      0.00s CPU      0.01s WALL (      48 calls)
                                        0.01s GPU  (      48 calls)

     Called by h_psi:
     h_psi:calbec :      0.09s CPU      0.61s WALL (      62 calls)
                                        0.61s GPU  (      62 calls)
     vloc_psi     :      1.02s CPU      1.03s WALL (      62 calls)
                                        1.03s GPU  (      62 calls)
     add_vuspsi   :      0.06s CPU      0.38s WALL (      62 calls)
                                        0.38s GPU  (      62 calls)

     General routines
     calbec       :      0.10s CPU      0.25s WALL (      80 calls)
     fft          :      3.63s CPU      4.69s WALL (     193 calls)
                                        0.04s GPU  (     180 calls)
     ffts         :      3.00s CPU      4.02s WALL (      26 calls)
                                        0.00s GPU  (      13 calls)
     fftw         :      0.02s CPU      1.06s WALL (     739 calls)
                                        1.05s GPU  (     739 calls)
     interpolate  :      6.71s CPU      8.76s WALL (      13 calls)
 
     Parallel routines
 
     PWSCF        :     59.56s CPU   1m12.47s WALL

 
   This run was terminated on:  11:51:33   6May2026            

=------------------------------------------------------------------------------=
   JOB DONE.
=------------------------------------------------------------------------------=
Warning: ieee_invalid is signaling
Warning: ieee_divide_by_zero is signaling
Warning: ieee_inexact is signaling
FORTRAN STOP
