--------------------------------------------------------------------------
WARNING: Open MPI tried to bind a process but failed.  This is a
warning only; your job will continue, though performance may
be degraded.

  Local host:        3253031b5b37
  Application name:  /root/qe-7.3.1/bin/pw.x
  Error message:     failed to bind memory
  Location:          ../../../../../orte/mca/rtc/hwloc/rtc_hwloc.c:447

--------------------------------------------------------------------------

     Program PWSCF v.7.3.1 starts on  6May2026 at  9:54:36 

     This program is part of the open-source Quantum ESPRESSO suite
     for quantum simulation of materials; please cite
         "P. Giannozzi et al., J. Phys.:Condens. Matter 21 395502 (2009);
         "P. Giannozzi et al., J. Phys.:Condens. Matter 29 465901 (2017);
         "P. Giannozzi et al., J. Chem. Phys. 152 154105 (2020);
          URL http://www.quantum-espresso.org", 
     in publications or presentations arising from this work. More details at
     http://www.quantum-espresso.org/quote

     Parallel version (MPI & OpenMP), running on       8 processor cores
     Number of MPI processes:                 1
     Threads/MPI process:                     8

     MPI processes distributed on     1 nodes
     85684 MiB available memory on the printing compute node when the environment starts
 
     Reading input from pristine_TiO2.in

     Current dimensions of program PWSCF are:
     Max number of different atomic species (ntypx) = 10
     Max number of k-points (npk) =  40000
     Max angular momentum in pseudopotentials (lmaxx) =  4
     file Ti.UPF: wavefunction(s)  3S 3P 3D renormalized
 
     Subspace diagonalization in iterative solution of the eigenvalue problem:
     a serial algorithm will be used

 
     G-vector sticks info
     --------------------
     sticks:   dense  smooth     PW     G-vecs:    dense   smooth      PW
     Sum        6355    4243   1057               578963   315321   39319
 
     Using Slab Decomposition
 


     bravais-lattice index     =            0
     lattice parameter (alat)  =      22.6299  a.u.
     unit-cell volume          =   14193.7821 (a.u.)^3
     number of atoms/cell      =           48
     number of atomic types    =            2
     number of electrons       =       384.00
     number of Kohn-Sham states=          230
     kinetic-energy cutoff     =      30.0000  Ry
     charge density cutoff     =     180.0000  Ry
     scf convergence threshold =      1.0E-07
     mixing beta               =       0.4000
     number of iterations used =            8  plain     mixing
     Exchange-correlation= SLA  PW   PBX  PBC
                           (   1   4   3   4   0   0   0)

     GPU acceleration is ACTIVE.  1 visible GPUs per MPI rank


     celldm(1)=  22.629907  celldm(2)=   0.000000  celldm(3)=   0.000000
     celldm(4)=   0.000000  celldm(5)=   0.000000  celldm(6)=   0.000000

     crystal axes: (cart. coord. in units of alat)
               a(1) = (   1.000000   0.000000   0.000000 )  
               a(2) = (  -0.500000   0.866025   0.000000 )  
               a(3) = (   0.000000   0.000000   1.414227 )  

     reciprocal axes: (cart. coord. in units 2 pi/alat)
               b(1) = (  1.000000  0.577350 -0.000000 )  
               b(2) = (  0.000000  1.154701  0.000000 )  
               b(3) = (  0.000000 -0.000000  0.707100 )  


     PseudoPot. # 1 for O  read from file:
     /root/qe_pseudos/O.UPF
     MD5 check sum: c7f41d994d4e90c1781f5cd713c45011
     Pseudo is Projector augmented-wave + core cor, Zval =  6.0
     Generated using "atomic" code by A. Dal Corso (espresso distribution)
     Shape of augmentation charge: BESSEL
     Using radial grid of 1095 points,  4 beta functions with: 
                l(1) =   0
                l(2) =   0
                l(3) =   1
                l(4) =   1
     Q(r) pseudized with 0 coefficients 


     PseudoPot. # 2 for Ti read from file:
     /root/qe_pseudos/Ti.UPF
     MD5 check sum: 01f69b0d8ba4438b2e03ac6ea4af1c0b
     Pseudo is Projector augmented-wave + core cor, Zval = 12.0
     Generated using &quot;atomic&quot; code by A. Dal Corso  v.6.2.2
     Shape of augmentation charge: PSQ
     Using radial grid of 1177 points,  6 beta functions with: 
                l(1) =   0
                l(2) =   0
                l(3) =   1
                l(4) =   1
                l(5) =   2
                l(6) =   2
     Q(r) pseudized with 0 coefficients 


     atomic species   valence    mass     pseudopotential
     O                 6.00    15.99900     O ( 1.00)
     Ti               12.00    47.86700     Ti( 1.00)

     No symmetry found



   Cartesian axes

     site n.     atom                  positions (alat units)
         1        O      tau(   1) = (   0.1249936   0.0721692   0.9108621  )
         2        O      tau(   2) = (   0.1249954   0.5053432   0.7876947  )
         3        O      tau(   3) = (  -0.0003747   0.5771361   0.6267454  )
         4        O      tau(   4) = (   0.7496929   0.2888500   0.7873038  )
         5        O      tau(   5) = (   0.0001348   0.7216052   0.7876938  )
         6        O      tau(   6) = (  -0.1238604   0.7931907   0.6256221  )
         7        O      tau(   7) = (   0.3738629   0.7932026   0.6256439  )
         8        O      tau(   8) = (   0.6249965   0.3608446   0.6255680  )
         9        O      tau(   9) = (   0.6249914   0.0721854   0.7884815  )
        10        O      tau(  10) = (   0.5002972   0.2888490   0.7873132  )
        11        O      tau(  11) = (   0.3750705   0.3611465   0.6265074  )
        12        O      tau(  12) = (   0.7496954   0.1442486   0.6265058  )
        13        O      tau(  13) = (   0.3750054   0.5051673   0.7884924  )
        14        O      tau(  14) = (   0.2503611   0.5771340   0.6267443  )
        15        O      tau(  15) = (   0.8745952   0.0725824   0.7870184  )
        16        O      tau(  16) = (   0.5002976   0.1442478   0.6265082  )
        17        O      tau(  17) = (   0.2498469   0.7216029   0.7876974  )
        18        O      tau(  18) = (   0.1249946   0.3621662   0.6256194  )
        19        O      tau(  19) = (  -0.1250147   0.5051772   0.7884939  )
        20        O      tau(  20) = (   0.1250011   0.0721690   0.7952563  )
        21        O      tau(  21) = (   0.0022616   0.1430340   0.6264605  )
        22        O      tau(  22) = (   0.5001550   0.7211318   0.7870178  )
        23        O      tau(  23) = (  -0.0005477   0.2888158   0.7870081  )
        24        O      tau(  24) = (  -0.1250752   0.3611511   0.6265084  )
        25        O      tau(  25) = (   0.2505453   0.2888204   0.7870123  )
        26        O      tau(  26) = (   0.1249944   0.7942805   0.6267459  )
        27        O      tau(  27) = (   0.4997724   0.5771298   0.6265115  )
        28        O      tau(  28) = (  -0.2501462   0.7211384   0.7870158  )
        29        O      tau(  29) = (  -0.3749975   0.7964723   0.6264723  )
        30        O      tau(  30) = (   0.6249994   0.5048308   0.7873121  )
        31        O      tau(  31) = (   0.3753936   0.0725675   0.7870108  )
        32        O      tau(  32) = (   0.2477297   0.1430297   0.6264744  )
        33        Ti     tau(  33) = (   0.6250125   0.2175281   0.7069187  )
        34        Ti     tau(  34) = (   0.3750300   0.6479182   0.7079367  )
        35        Ti     tau(  35) = (   0.5008769   0.4325167   0.7069022  )
        36        Ti     tau(  36) = (  -0.0046006  -0.0026779   0.7029671  )
        37        Ti     tau(  37) = (   0.1249979   0.6495247   0.7083611  )
        38        Ti     tau(  38) = (   0.2514176   0.4338166   0.7079468  )
        39        Ti     tau(  39) = (   0.3738127   0.2158267   0.7069867  )
        40        Ti     tau(  40) = (  -0.1250098   0.6478765   0.7079405  )
        41        Ti     tau(  41) = (  -0.0014318   0.4338141   0.7079373  )
        42        Ti     tau(  42) = (   0.1250125   0.2218758   0.7029199  )
        43        Ti     tau(  43) = (   0.2546426  -0.0026692   0.7029119  )
        44        Ti     tau(  44) = (  -0.3750066   0.6509105   0.7069871  )
        45        Ti     tau(  45) = (  -0.2508819   0.4324831   0.7069222  )
        46        Ti     tau(  46) = (  -0.1237959   0.2157915   0.7069523  )
        47        Ti     tau(  47) = (   0.7486246   0.0008122   0.7079304  )
        48        Ti     tau(  48) = (   0.5014043   0.0008261   0.7079459  )

     number of k points=     1  Methfessel-Paxton smearing, width (Ry)=  0.0100
                       cart. coord. in units 2pi/alat
        k(    1) = (   0.0000000   0.0000000   0.0000000), wk =   2.0000000

     Dense  grid:   578963 G-vectors     FFT dimensions: ( 100, 100, 144)

     Smooth grid:   315321 G-vectors     FFT dimensions: (  80,  80, 120)

     Estimated max dynamical RAM per process >       3.22 GB

     Check: negative core charge=   -0.000032

     Initial potential from superposition of free atoms

     starting charge     383.9766, renormalised to     384.0000

     negative rho (up, down):  3.583E-02 0.000E+00
     Starting wfcs are  288 randomized atomic wfcs
     Checking if some PAW data can be deallocated... 

     total cpu time spent up to now is       18.2 secs

     Self-consistent Calculation

     iteration #  1     ecut=    30.00 Ry     beta= 0.40
     Davidson diagonalization with overlap
     ethr =  1.00E-02,  avg # of iterations =  2.0

     negative rho (up, down):  3.369E-02 0.000E+00

     total cpu time spent up to now is       30.0 secs

     total energy              =   -4268.06325798 Ry
     estimated scf accuracy    <      22.64920800 Ry

     iteration #  2     ecut=    30.00 Ry     beta= 0.40
     Davidson diagonalization with overlap
     ethr =  5.90E-03,  avg # of iterations =  6.0

     negative rho (up, down):  5.211E-02 0.000E+00

     total cpu time spent up to now is       42.0 secs

     total energy              =   -4269.41019076 Ry
     estimated scf accuracy    <      30.38171822 Ry

     iteration #  3     ecut=    30.00 Ry     beta= 0.40
     Davidson diagonalization with overlap
     ethr =  5.90E-03,  avg # of iterations =  6.0

     negative rho (up, down):  6.099E-02 0.000E+00

     total cpu time spent up to now is       53.9 secs

     total energy              =   -4274.97830362 Ry
     estimated scf accuracy    <       6.31377062 Ry

     iteration #  4     ecut=    30.00 Ry     beta= 0.40
     Davidson diagonalization with overlap
     ethr =  1.64E-03,  avg # of iterations = 11.0

     negative rho (up, down):  8.727E-02 0.000E+00

     total cpu time spent up to now is       66.3 secs

     total energy              =   -4275.57803687 Ry
     estimated scf accuracy    <       1.54523837 Ry

     iteration #  5     ecut=    30.00 Ry     beta= 0.40
     Davidson diagonalization with overlap
     ethr =  4.02E-04,  avg # of iterations =  4.0

     negative rho (up, down):  1.107E-01 0.000E+00

     total cpu time spent up to now is       78.1 secs

     total energy              =   -4275.48195026 Ry
     estimated scf accuracy    <       0.69131627 Ry

     iteration #  6     ecut=    30.00 Ry     beta= 0.40
     Davidson diagonalization with overlap
     ethr =  1.80E-04,  avg # of iterations =  5.0

     negative rho (up, down):  1.733E-01 0.000E+00

     total cpu time spent up to now is       89.8 secs

     total energy              =   -4275.53125177 Ry
     estimated scf accuracy    <       0.08353018 Ry

     iteration #  7     ecut=    30.00 Ry     beta= 0.40
     Davidson diagonalization with overlap
     ethr =  2.18E-05,  avg # of iterations = 16.0
     Minimization algorithm failed to find Fermi energy: reverting to bisection
     Possible cause: smearing is larger than the electronic band-gap.

     negative rho (up, down):  2.472E-01 0.000E+00

     total cpu time spent up to now is      102.3 secs

     total energy              =   -4275.56305662 Ry
     estimated scf accuracy    <       0.05966095 Ry

     iteration #  8     ecut=    30.00 Ry     beta= 0.40
     Davidson diagonalization with overlap
     ethr =  1.55E-05,  avg # of iterations =  2.0

     negative rho (up, down):  3.522E-01 0.000E+00

     total cpu time spent up to now is      114.0 secs

     total energy              =   -4275.57287186 Ry
     estimated scf accuracy    <       0.04690867 Ry

     iteration #  9     ecut=    30.00 Ry     beta= 0.40
     Davidson diagonalization with overlap
     ethr =  1.22E-05,  avg # of iterations =  3.0

     negative rho (up, down):  4.731E-01 0.000E+00

     total cpu time spent up to now is      125.7 secs

     total energy              =   -4275.58917954 Ry
     estimated scf accuracy    <       0.00968188 Ry

     iteration # 10     ecut=    30.00 Ry     beta= 0.40
     Davidson diagonalization with overlap
     ethr =  2.52E-06,  avg # of iterations =  6.0

     negative rho (up, down):  6.156E-01 0.000E+00

     total cpu time spent up to now is      137.7 secs

     total energy              =   -4275.59599819 Ry
     estimated scf accuracy    <       0.00590201 Ry

     iteration # 11     ecut=    30.00 Ry     beta= 0.40
     Davidson diagonalization with overlap
     ethr =  1.54E-06,  avg # of iterations =  5.0

     negative rho (up, down):  8.983E-01 0.000E+00

     total cpu time spent up to now is      149.5 secs

     total energy              =   -4275.56184377 Ry
     estimated scf accuracy    <       0.00709818 Ry

     iteration # 12     ecut=    30.00 Ry     beta= 0.40
     Davidson diagonalization with overlap
     c_bands:  1 eigenvalues not converged
     ethr =  1.54E-06,  avg # of iterations = 20.0

     negative rho (up, down):  8.863E-01 0.000E+00

     total cpu time spent up to now is      162.5 secs

     total energy              =   -4275.58929576 Ry
     estimated scf accuracy    <       0.02792309 Ry

     iteration # 13     ecut=    30.00 Ry     beta= 0.40
     Davidson diagonalization with overlap
     ethr =  1.54E-06,  avg # of iterations =  5.0

     negative rho (up, down):  9.096E-01 0.000E+00

     total cpu time spent up to now is      174.4 secs

     total energy              =   -4275.61595356 Ry
     estimated scf accuracy    <       0.01656560 Ry

     iteration # 14     ecut=    30.00 Ry     beta= 0.40
     Davidson diagonalization with overlap
     ethr =  1.54E-06,  avg # of iterations =  5.0

     negative rho (up, down):  9.951E-01 0.000E+00

     total cpu time spent up to now is      186.4 secs

     total energy              =   -4275.62410606 Ry
     estimated scf accuracy    <       0.00506965 Ry

     iteration # 15     ecut=    30.00 Ry     beta= 0.40
     Davidson diagonalization with overlap
     ethr =  1.32E-06,  avg # of iterations =  6.0

     negative rho (up, down):  1.059E+00 0.000E+00

     total cpu time spent up to now is      198.2 secs

     total energy              =   -4275.63571132 Ry
     estimated scf accuracy    <       0.00164196 Ry

     iteration # 16     ecut=    30.00 Ry     beta= 0.40
     Davidson diagonalization with overlap
     ethr =  4.28E-07,  avg # of iterations =  5.0

     negative rho (up, down):  1.136E+00 0.000E+00

     total cpu time spent up to now is      209.9 secs

     total energy              =   -4275.64076784 Ry
     estimated scf accuracy    <       0.00141670 Ry

     iteration # 17     ecut=    30.00 Ry     beta= 0.40
     Davidson diagonalization with overlap
     ethr =  3.69E-07,  avg # of iterations =  2.0

     negative rho (up, down):  1.213E+00 0.000E+00

     total cpu time spent up to now is      221.7 secs

     total energy              =   -4275.64210641 Ry
     estimated scf accuracy    <       0.00291163 Ry

     iteration # 18     ecut=    30.00 Ry     beta= 0.40
     Davidson diagonalization with overlap
     ethr =  3.69E-07,  avg # of iterations =  4.0

     negative rho (up, down):  1.277E+00 0.000E+00

     total cpu time spent up to now is      233.5 secs

     total energy              =   -4275.64608873 Ry
     estimated scf accuracy    <       0.00382657 Ry

     iteration # 19     ecut=    30.00 Ry     beta= 0.40
     Davidson diagonalization with overlap
     ethr =  3.69E-07,  avg # of iterations =  2.0

     negative rho (up, down):  1.363E+00 0.000E+00

     total cpu time spent up to now is      245.2 secs

     total energy              =   -4275.63947774 Ry
     estimated scf accuracy    <       0.00332301 Ry

     iteration # 20     ecut=    30.00 Ry     beta= 0.40
     Davidson diagonalization with overlap
     ethr =  3.69E-07,  avg # of iterations =  2.0

     negative rho (up, down):  1.397E+00 0.000E+00

     total cpu time spent up to now is      256.8 secs

     total energy              =   -4275.64656652 Ry
     estimated scf accuracy    <       0.00486226 Ry

     iteration # 21     ecut=    30.00 Ry     beta= 0.40
     Davidson diagonalization with overlap
     ethr =  3.69E-07,  avg # of iterations =  5.0

     negative rho (up, down):  1.455E+00 0.000E+00

     total cpu time spent up to now is      268.7 secs

     total energy              =   -4275.64214877 Ry
     estimated scf accuracy    <       0.00360179 Ry

     iteration # 22     ecut=    30.00 Ry     beta= 0.40
     Davidson diagonalization with overlap
     ethr =  3.69E-07,  avg # of iterations =  2.0

     negative rho (up, down):  1.513E+00 0.000E+00

     total cpu time spent up to now is      280.5 secs

     total energy              =   -4275.63699032 Ry
     estimated scf accuracy    <       0.00440605 Ry

     iteration # 23     ecut=    30.00 Ry     beta= 0.40
     Davidson diagonalization with overlap
     ethr =  3.69E-07,  avg # of iterations =  2.0

     negative rho (up, down):  1.568E+00 0.000E+00

     total cpu time spent up to now is      292.1 secs

     total energy              =   -4275.62929755 Ry
     estimated scf accuracy    <       0.00515897 Ry

     iteration # 24     ecut=    30.00 Ry     beta= 0.40
     Davidson diagonalization with overlap
     ethr =  3.69E-07,  avg # of iterations =  2.0

     negative rho (up, down):  1.600E+00 0.000E+00

     total cpu time spent up to now is      303.8 secs

     total energy              =   -4275.62596173 Ry
     estimated scf accuracy    <       0.00613903 Ry

     iteration # 25     ecut=    30.00 Ry     beta= 0.40
     Davidson diagonalization with overlap
     ethr =  3.69E-07,  avg # of iterations =  2.0

     negative rho (up, down):  1.607E+00 0.000E+00

     total cpu time spent up to now is      315.5 secs

     total energy              =   -4275.62951253 Ry
     estimated scf accuracy    <       0.00652944 Ry

     iteration # 26     ecut=    30.00 Ry     beta= 0.40
     Davidson diagonalization with overlap
     ethr =  3.69E-07,  avg # of iterations =  2.0

     negative rho (up, down):  1.635E+00 0.000E+00

     total cpu time spent up to now is      327.1 secs

     total energy              =   -4275.62622050 Ry
     estimated scf accuracy    <       0.00615587 Ry

     iteration # 27     ecut=    30.00 Ry     beta= 0.40
     Davidson diagonalization with overlap
     ethr =  3.69E-07,  avg # of iterations =  2.0

     negative rho (up, down):  1.644E+00 0.000E+00

     total cpu time spent up to now is      338.7 secs

     total energy              =   -4275.62766897 Ry
     estimated scf accuracy    <       0.00652203 Ry

     iteration # 28     ecut=    30.00 Ry     beta= 0.40
     Davidson diagonalization with overlap
     ethr =  3.69E-07,  avg # of iterations =  2.0

     negative rho (up, down):  1.641E+00 0.000E+00

     total cpu time spent up to now is      350.4 secs

     total energy              =   -4275.63275410 Ry
     estimated scf accuracy    <       0.00633827 Ry

     iteration # 29     ecut=    30.00 Ry     beta= 0.40
     Davidson diagonalization with overlap
     ethr =  3.69E-07,  avg # of iterations =  2.0

     negative rho (up, down):  1.682E+00 0.000E+00

     total cpu time spent up to now is      362.0 secs

     total energy              =   -4275.62496388 Ry
     estimated scf accuracy    <       0.00574376 Ry

     iteration # 30     ecut=    30.00 Ry     beta= 0.40
     Davidson diagonalization with overlap
     ethr =  3.69E-07,  avg # of iterations =  2.0

     negative rho (up, down):  1.737E+00 0.000E+00

     total cpu time spent up to now is      373.6 secs

     total energy              =   -4275.61025413 Ry
     estimated scf accuracy    <       0.00641910 Ry

     iteration # 31     ecut=    30.00 Ry     beta= 0.40
     Davidson diagonalization with overlap
     ethr =  3.69E-07,  avg # of iterations =  5.0

     negative rho (up, down):  1.783E+00 0.000E+00

     total cpu time spent up to now is      385.3 secs

     total energy              =   -4275.59656560 Ry
     estimated scf accuracy    <       0.00873460 Ry

     iteration # 32     ecut=    30.00 Ry     beta= 0.40
     Davidson diagonalization with overlap
     ethr =  3.69E-07,  avg # of iterations =  5.0

     negative rho (up, down):  1.756E+00 0.000E+00

     total cpu time spent up to now is      397.2 secs

     total energy              =   -4275.60361251 Ry
     estimated scf accuracy    <       0.00980292 Ry

     iteration # 33     ecut=    30.00 Ry     beta= 0.40
     Davidson diagonalization with overlap
     ethr =  3.69E-07,  avg # of iterations =  2.0

     negative rho (up, down):  1.578E+00 0.000E+00

     total cpu time spent up to now is      408.9 secs

     total energy              =   -4275.65902563 Ry
     estimated scf accuracy    <       0.00921205 Ry

     iteration # 34     ecut=    30.00 Ry     beta= 0.40
     Davidson diagonalization with overlap
     ethr =  3.69E-07,  avg # of iterations =  4.0

     negative rho (up, down):  1.593E+00 0.000E+00

     total cpu time spent up to now is      420.8 secs

     total energy              =   -4275.66380783 Ry
     estimated scf accuracy    <       0.00182968 Ry

     iteration # 35     ecut=    30.00 Ry     beta= 0.40
     Davidson diagonalization with overlap
     ethr =  3.69E-07,  avg # of iterations =  5.0

     negative rho (up, down):  1.610E+00 0.000E+00

     total cpu time spent up to now is      432.5 secs

     total energy              =   -4275.66631320 Ry
     estimated scf accuracy    <       0.00059998 Ry

     iteration # 36     ecut=    30.00 Ry     beta= 0.40
     Davidson diagonalization with overlap
     ethr =  1.56E-07,  avg # of iterations =  5.0

     negative rho (up, down):  1.638E+00 0.000E+00

     total cpu time spent up to now is      444.3 secs

     total energy              =   -4275.66652077 Ry
     estimated scf accuracy    <       0.00030801 Ry

     iteration # 37     ecut=    30.00 Ry     beta= 0.40
     Davidson diagonalization with overlap
     ethr =  8.02E-08,  avg # of iterations =  5.0

     negative rho (up, down):  1.658E+00 0.000E+00

     total cpu time spent up to now is      456.1 secs

     total energy              =   -4275.66732091 Ry
     estimated scf accuracy    <       0.00007286 Ry

     iteration # 38     ecut=    30.00 Ry     beta= 0.40
     Davidson diagonalization with overlap
     ethr =  1.90E-08,  avg # of iterations =  5.0

     negative rho (up, down):  1.676E+00 0.000E+00

     total cpu time spent up to now is      468.0 secs

     total energy              =   -4275.66779009 Ry
     estimated scf accuracy    <       0.00006382 Ry

     iteration # 39     ecut=    30.00 Ry     beta= 0.40
     Davidson diagonalization with overlap
     ethr =  1.66E-08,  avg # of iterations =  5.0

     negative rho (up, down):  1.691E+00 0.000E+00

     total cpu time spent up to now is      480.0 secs

     total energy              =   -4275.66838988 Ry
     estimated scf accuracy    <       0.00004346 Ry

     iteration # 40     ecut=    30.00 Ry     beta= 0.40
     Davidson diagonalization with overlap
     ethr =  1.13E-08,  avg # of iterations =  3.0

     negative rho (up, down):  1.707E+00 0.000E+00

     total cpu time spent up to now is      491.7 secs

     total energy              =   -4275.66720663 Ry
     estimated scf accuracy    <       0.00006414 Ry

     iteration # 41     ecut=    30.00 Ry     beta= 0.40
     Davidson diagonalization with overlap
     ethr =  1.13E-08,  avg # of iterations =  4.0

     negative rho (up, down):  1.713E+00 0.000E+00

     total cpu time spent up to now is      503.6 secs

     total energy              =   -4275.66892932 Ry
     estimated scf accuracy    <       0.00056533 Ry

     iteration # 42     ecut=    30.00 Ry     beta= 0.40
     Davidson diagonalization with overlap
     ethr =  1.13E-08,  avg # of iterations =  3.0

     negative rho (up, down):  1.723E+00 0.000E+00

     total cpu time spent up to now is      515.5 secs

     total energy              =   -4275.66932402 Ry
     estimated scf accuracy    <       0.00021522 Ry

     iteration # 43     ecut=    30.00 Ry     beta= 0.40
     Davidson diagonalization with overlap
     ethr =  1.13E-08,  avg # of iterations =  3.0

     negative rho (up, down):  1.732E+00 0.000E+00

     total cpu time spent up to now is      527.3 secs

     total energy              =   -4275.66948185 Ry
     estimated scf accuracy    <       0.00008765 Ry

     iteration # 44     ecut=    30.00 Ry     beta= 0.40
     Davidson diagonalization with overlap
     ethr =  1.13E-08,  avg # of iterations =  3.0

     negative rho (up, down):  1.740E+00 0.000E+00

     total cpu time spent up to now is      539.1 secs

     total energy              =   -4275.66954380 Ry
     estimated scf accuracy    <       0.00004808 Ry

     iteration # 45     ecut=    30.00 Ry     beta= 0.40
     Davidson diagonalization with overlap
     ethr =  1.13E-08,  avg # of iterations =  3.0

     negative rho (up, down):  1.747E+00 0.000E+00

     total cpu time spent up to now is      550.8 secs

     total energy              =   -4275.66956062 Ry
     estimated scf accuracy    <       0.00001871 Ry

     iteration # 46     ecut=    30.00 Ry     beta= 0.40
     Davidson diagonalization with overlap
     ethr =  4.87E-09,  avg # of iterations =  3.0

     negative rho (up, down):  1.753E+00 0.000E+00

     total cpu time spent up to now is      562.6 secs

     total energy              =   -4275.66957630 Ry
     estimated scf accuracy    <       0.00000486 Ry

     iteration # 47     ecut=    30.00 Ry     beta= 0.40
     Davidson diagonalization with overlap
     ethr =  1.27E-09,  avg # of iterations =  3.0

     negative rho (up, down):  1.757E+00 0.000E+00

     total cpu time spent up to now is      574.4 secs

     total energy              =   -4275.66976221 Ry
     estimated scf accuracy    <       0.00000045 Ry

     iteration # 48     ecut=    30.00 Ry     beta= 0.40
     Davidson diagonalization with overlap
     ethr =  1.17E-10,  avg # of iterations =  7.0

     negative rho (up, down):  1.761E+00 0.000E+00

     total cpu time spent up to now is      586.7 secs

     total energy              =   -4275.66989458 Ry
     estimated scf accuracy    <       0.00000198 Ry

     iteration # 49     ecut=    30.00 Ry     beta= 0.40
     Davidson diagonalization with overlap
     ethr =  1.17E-10,  avg # of iterations =  4.0

     negative rho (up, down):  1.764E+00 0.000E+00

     total cpu time spent up to now is      598.7 secs

     total energy              =   -4275.67001584 Ry
     estimated scf accuracy    <       0.00000389 Ry

     iteration # 50     ecut=    30.00 Ry     beta= 0.40
     Davidson diagonalization with overlap
     ethr =  1.17E-10,  avg # of iterations =  5.0

     negative rho (up, down):  1.767E+00 0.000E+00

     total cpu time spent up to now is      610.9 secs

     total energy              =   -4275.67004867 Ry
     estimated scf accuracy    <       0.00004231 Ry

     iteration # 51     ecut=    30.00 Ry     beta= 0.40
     Davidson diagonalization with overlap
     ethr =  1.17E-10,  avg # of iterations =  4.0

     negative rho (up, down):  1.770E+00 0.000E+00

     total cpu time spent up to now is      622.9 secs

     total energy              =   -4275.67001610 Ry
     estimated scf accuracy    <       0.00004224 Ry

     iteration # 52     ecut=    30.00 Ry     beta= 0.40
     Davidson diagonalization with overlap
     ethr =  1.17E-10,  avg # of iterations =  4.0

     negative rho (up, down):  1.772E+00 0.000E+00

     total cpu time spent up to now is      634.8 secs

     total energy              =   -4275.66993708 Ry
     estimated scf accuracy    <       0.00005697 Ry

     iteration # 53     ecut=    30.00 Ry     beta= 0.40
     Davidson diagonalization with overlap
     ethr =  1.17E-10,  avg # of iterations =  5.0

     negative rho (up, down):  1.774E+00 0.000E+00

     total cpu time spent up to now is      646.8 secs

     total energy              =   -4275.66993481 Ry
     estimated scf accuracy    <       0.00007569 Ry

     iteration # 54     ecut=    30.00 Ry     beta= 0.40
     Davidson diagonalization with overlap
     ethr =  1.17E-10,  avg # of iterations =  4.0

     negative rho (up, down):  1.776E+00 0.000E+00

     total cpu time spent up to now is      658.8 secs

     total energy              =   -4275.66984079 Ry
     estimated scf accuracy    <       0.00007497 Ry

     iteration # 55     ecut=    30.00 Ry     beta= 0.40
     Davidson diagonalization with overlap
     ethr =  1.17E-10,  avg # of iterations =  4.0

     negative rho (up, down):  1.777E+00 0.000E+00

     total cpu time spent up to now is      670.8 secs

     total energy              =   -4275.66980366 Ry
     estimated scf accuracy    <       0.00009037 Ry

     iteration # 56     ecut=    30.00 Ry     beta= 0.40
     Davidson diagonalization with overlap
     ethr =  1.17E-10,  avg # of iterations =  4.0

     negative rho (up, down):  1.778E+00 0.000E+00

     total cpu time spent up to now is      682.7 secs

     total energy              =   -4275.66978663 Ry
     estimated scf accuracy    <       0.00009413 Ry

     iteration # 57     ecut=    30.00 Ry     beta= 0.40
     Davidson diagonalization with overlap
     ethr =  1.17E-10,  avg # of iterations =  4.0

     negative rho (up, down):  1.779E+00 0.000E+00

     total cpu time spent up to now is      694.6 secs

     total energy              =   -4275.66958916 Ry
     estimated scf accuracy    <       0.00009429 Ry

     iteration # 58     ecut=    30.00 Ry     beta= 0.40
     Davidson diagonalization with overlap
     ethr =  1.17E-10,  avg # of iterations =  3.0

     negative rho (up, down):  1.780E+00 0.000E+00

     total cpu time spent up to now is      706.6 secs

     total energy              =   -4275.66947357 Ry
     estimated scf accuracy    <       0.00012220 Ry

     iteration # 59     ecut=    30.00 Ry     beta= 0.40
     Davidson diagonalization with overlap
     ethr =  1.17E-10,  avg # of iterations =  4.0

     negative rho (up, down):  1.781E+00 0.000E+00

     total cpu time spent up to now is      718.5 secs

     total energy              =   -4275.66934879 Ry
     estimated scf accuracy    <       0.00013660 Ry

     iteration # 60     ecut=    30.00 Ry     beta= 0.40
     Davidson diagonalization with overlap
     ethr =  1.17E-10,  avg # of iterations =  3.0

     negative rho (up, down):  1.782E+00 0.000E+00

     total cpu time spent up to now is      730.4 secs

     total energy              =   -4275.66935241 Ry
     estimated scf accuracy    <       0.00015169 Ry

     iteration # 61     ecut=    30.00 Ry     beta= 0.40
     Davidson diagonalization with overlap
     ethr =  1.17E-10,  avg # of iterations =  3.0

     negative rho (up, down):  1.780E+00 0.000E+00

     total cpu time spent up to now is      742.2 secs

     total energy              =   -4275.66992507 Ry
     estimated scf accuracy    <       0.00014847 Ry

     iteration # 62     ecut=    30.00 Ry     beta= 0.40
     Davidson diagonalization with overlap
     ethr =  1.17E-10,  avg # of iterations =  6.0

     negative rho (up, down):  1.781E+00 0.000E+00

     total cpu time spent up to now is      754.3 secs

     total energy              =   -4275.66993647 Ry
     estimated scf accuracy    <       0.00006112 Ry

     iteration # 63     ecut=    30.00 Ry     beta= 0.40
     Davidson diagonalization with overlap
     ethr =  1.17E-10,  avg # of iterations =  5.0

     negative rho (up, down):  1.781E+00 0.000E+00

     total cpu time spent up to now is      766.1 secs

     total energy              =   -4275.66994239 Ry
     estimated scf accuracy    <       0.00005710 Ry

     iteration # 64     ecut=    30.00 Ry     beta= 0.40
     Davidson diagonalization with overlap
     ethr =  1.17E-10,  avg # of iterations =  3.0

     negative rho (up, down):  1.782E+00 0.000E+00

     total cpu time spent up to now is      777.9 secs

     total energy              =   -4275.66988598 Ry
     estimated scf accuracy    <       0.00005415 Ry

     iteration # 65     ecut=    30.00 Ry     beta= 0.40
     Davidson diagonalization with overlap
     ethr =  1.17E-10,  avg # of iterations =  3.0

     negative rho (up, down):  1.782E+00 0.000E+00

     total cpu time spent up to now is      789.7 secs

     total energy              =   -4275.66997914 Ry
     estimated scf accuracy    <       0.00006095 Ry

     iteration # 66     ecut=    30.00 Ry     beta= 0.40
     Davidson diagonalization with overlap
     ethr =  1.17E-10,  avg # of iterations =  3.0

     negative rho (up, down):  1.782E+00 0.000E+00

     total cpu time spent up to now is      801.6 secs

     total energy              =   -4275.67007873 Ry
     estimated scf accuracy    <       0.00004508 Ry

     iteration # 67     ecut=    30.00 Ry     beta= 0.40
     Davidson diagonalization with overlap
     ethr =  1.17E-10,  avg # of iterations =  4.0

     negative rho (up, down):  1.782E+00 0.000E+00

     total cpu time spent up to now is      813.5 secs

     total energy              =   -4275.67011995 Ry
     estimated scf accuracy    <       0.00002808 Ry

     iteration # 68     ecut=    30.00 Ry     beta= 0.40
     Davidson diagonalization with overlap
     ethr =  1.17E-10,  avg # of iterations =  3.0

     negative rho (up, down):  1.783E+00 0.000E+00

     total cpu time spent up to now is      825.3 secs

     total energy              =   -4275.67013636 Ry
     estimated scf accuracy    <       0.00002050 Ry

     iteration # 69     ecut=    30.00 Ry     beta= 0.40
     Davidson diagonalization with overlap
     ethr =  1.17E-10,  avg # of iterations =  3.0

     negative rho (up, down):  1.783E+00 0.000E+00

     total cpu time spent up to now is      837.0 secs

     total energy              =   -4275.67017463 Ry
     estimated scf accuracy    <       0.00001702 Ry

     iteration # 70     ecut=    30.00 Ry     beta= 0.40
     Davidson diagonalization with overlap
     ethr =  1.17E-10,  avg # of iterations =  4.0

     negative rho (up, down):  1.783E+00 0.000E+00

     total cpu time spent up to now is      848.9 secs

     total energy              =   -4275.67018240 Ry
     estimated scf accuracy    <       0.00000994 Ry

     iteration # 71     ecut=    30.00 Ry     beta= 0.40
     Davidson diagonalization with overlap
     ethr =  1.17E-10,  avg # of iterations =  3.0

     negative rho (up, down):  1.783E+00 0.000E+00

     total cpu time spent up to now is      860.7 secs

     total energy              =   -4275.67019379 Ry
     estimated scf accuracy    <       0.00000804 Ry

     iteration # 72     ecut=    30.00 Ry     beta= 0.40
     Davidson diagonalization with overlap
     ethr =  1.17E-10,  avg # of iterations =  5.0

     negative rho (up, down):  1.783E+00 0.000E+00

     total cpu time spent up to now is      872.6 secs

     total energy              =   -4275.67019436 Ry
     estimated scf accuracy    <       0.00000572 Ry

     iteration # 73     ecut=    30.00 Ry     beta= 0.40
     Davidson diagonalization with overlap
     ethr =  1.17E-10,  avg # of iterations =  3.0

     negative rho (up, down):  1.784E+00 0.000E+00

     total cpu time spent up to now is      884.5 secs

     total energy              =   -4275.67021293 Ry
     estimated scf accuracy    <       0.00000519 Ry

     iteration # 74     ecut=    30.00 Ry     beta= 0.40
     Davidson diagonalization with overlap
     ethr =  1.17E-10,  avg # of iterations =  6.0

     negative rho (up, down):  1.784E+00 0.000E+00

     total cpu time spent up to now is      896.5 secs

     total energy              =   -4275.67021975 Ry
     estimated scf accuracy    <       0.00000095 Ry

     iteration # 75     ecut=    30.00 Ry     beta= 0.40
     Davidson diagonalization with overlap
     ethr =  1.17E-10,  avg # of iterations =  5.0

     negative rho (up, down):  1.784E+00 0.000E+00

     total cpu time spent up to now is      908.5 secs

     End of self-consistent calculation

          k = 0.0000 0.0000 0.0000 ( 39319 PWs)   bands (ev):

   -61.5002 -61.4708 -61.4257 -61.4121 -61.3993 -61.3786 -61.3705 -61.3601
   -61.3576 -61.3464 -61.2459 -61.2336 -61.2113 -61.2094 -61.1874 -61.1572
   -37.9482 -37.9322 -37.8930 -37.8574 -37.8342 -37.8252 -37.8144 -37.8013
   -37.7884 -37.7630 -37.7607 -37.7465 -37.7392 -37.7371 -37.7158 -37.7003
   -37.6936 -37.6822 -37.6724 -37.6704 -37.6531 -37.6422 -37.6314 -37.6299
   -37.6210 -37.6183 -37.6033 -37.5830 -37.5749 -37.5676 -37.5617 -37.5502
   -37.5371 -37.5174 -37.4941 -37.4786 -37.4775 -37.4562 -37.4497 -37.4329
   -37.4220 -37.3720 -37.3534 -37.3493 -37.3239 -37.3041 -37.2692 -37.2392
   -24.7117 -21.9311 -21.3708 -21.3539 -21.3420 -21.3093 -21.2569 -21.2401
   -21.0713 -21.0651 -21.0055 -20.8038 -20.7899 -20.7779 -20.7471 -20.7391
   -20.7274 -20.7236 -20.6986 -20.6900 -20.6811 -20.6209 -20.5858 -20.5410
   -20.5206 -20.5033 -20.4892 -20.4532 -20.3664 -20.3341 -20.2237 -16.8301
    -9.0919  -9.0817  -9.0748  -8.7745  -8.5664  -8.5515  -8.3520  -8.3354
    -8.3298  -8.3059  -8.2909  -8.2507  -8.2212  -8.2022  -8.1922  -8.1697
    -8.1594  -8.1277  -8.1075  -8.0965  -8.0612  -8.0088  -7.9599  -7.9381
    -7.9019  -7.7518  -7.7448  -7.6971  -7.6809  -7.6271  -7.6078  -7.5872
    -7.5858  -7.5353  -7.5313  -7.4774  -7.3801  -7.3326  -7.2934  -7.2721
    -7.2433  -7.1860  -7.1325  -7.1168  -7.1115  -7.0902  -6.9690  -6.8904
    -6.8500  -6.6989  -6.6832  -6.6428  -6.5948  -6.5410  -6.4793  -6.4469
    -6.4045  -6.3458  -6.3300  -6.2630  -6.2533  -6.2398  -6.2295  -6.2055
    -6.2028  -6.1938  -6.0301  -6.0167  -5.9147  -5.8470  -5.8310  -5.7642
    -5.7113  -5.6788  -5.6531  -5.6100  -5.5803  -5.3339  -5.3048  -5.2692
    -5.2165  -5.1872  -5.1769  -5.1526  -5.1228  -4.9331  -4.9109  -4.8838
    -4.8133  -4.7111  -4.6681  -4.6324  -4.6306  -2.1226  -2.0904  -2.0738
    -1.6961  -1.5975  -1.5891  -1.4970  -1.4611  -1.4074  -1.3794  -1.3381
    -1.3017  -1.2836  -1.2530  -1.2184  -1.1856  -1.1831  -1.1657  -1.1049
    -1.0816  -1.0293  -0.9733  -0.8328  -0.8167  -0.7951  -0.7544  -0.7017
    -0.6748  -0.6281  -0.6234  -0.6192  -0.5972  -0.5856  -0.5719  -0.5594
    -0.5564  -0.5236  -0.5141  -0.4841  -0.4729  -0.4556

     the Fermi energy is    -1.8609 ev

!    total energy              =   -4275.67021742 Ry
     total all-electron energy =    -32138.780659 Ry
     estimated scf accuracy    <       0.00000002 Ry
     smearing contrib. (-TS)   =       0.00425760 Ry
     internal energy E=F+TS    =   -4275.67447502 Ry

     The total energy is F=E-TS. E is the sum of the following terms:
     one-electron contribution =  -16069.86765526 Ry
     hartree contribution      =    8051.80013319 Ry
     xc contribution           =    -520.34135310 Ry
     ewald contribution        =    5625.99114523 Ry
     one-center paw contrib.   =   -1363.25674508 Ry

     convergence has been achieved in  75 iterations

     negative rho (up, down):  1.784E+00 0.000E+00

     Forces acting on atoms (cartesian axes, Ry/au):

     atom    1 type  1   force =     0.00176557   -0.00126637    0.01198486
     atom    2 type  1   force =    -0.00299451   -0.00175326    0.00183410
     atom    3 type  1   force =    -0.01081861   -0.00182711   -0.00927310
     atom    4 type  1   force =     0.00082278    0.00048841    0.00422893
     atom    5 type  1   force =    -0.00386765   -0.00232967    0.00474342
     atom    6 type  1   force =    -0.00302577   -0.01112872   -0.01110113
     atom    7 type  1   force =    -0.00243096   -0.00294212   -0.00510836
     atom    8 type  1   force =     0.00716470    0.01351322   -0.00916517
     atom    9 type  1   force =     0.00106815    0.00521885    0.00373351
     atom   10 type  1   force =     0.00007820    0.00297590    0.00107972
     atom   11 type  1   force =    -0.00178581    0.00307526   -0.00242878
     atom   12 type  1   force =     0.00000322   -0.00285726   -0.00532340
     atom   13 type  1   force =     0.00750773   -0.00387208    0.00162891
     atom   14 type  1   force =    -0.00057490   -0.00223379   -0.00232575
     atom   15 type  1   force =    -0.00000615    0.00333036    0.00263076
     atom   16 type  1   force =    -0.00194680   -0.00199606   -0.00362008
     atom   17 type  1   force =     0.00036595    0.00094903    0.00354200
     atom   18 type  1   force =    -0.00155636    0.00594770   -0.00207979
     atom   19 type  1   force =    -0.02026313    0.00990499   -0.01601045
     atom   20 type  1   force =    -0.00151320    0.00047222   -0.01625884
     atom   21 type  1   force =     0.00482917   -0.00153278   -0.00510770
     atom   22 type  1   force =     0.00359407   -0.00249894    0.00479214
     atom   23 type  1   force =    -0.00428150    0.00111276    0.00128794
     atom   24 type  1   force =    -0.00360868    0.01481639   -0.00992583
     atom   25 type  1   force =     0.00339753   -0.00191885    0.00242576
     atom   26 type  1   force =    -0.00097761   -0.00147377   -0.00447785
     atom   27 type  1   force =     0.01066395    0.00072313   -0.01034251
     atom   28 type  1   force =     0.00071883   -0.02403724   -0.01848304
     atom   29 type  1   force =     0.00615148   -0.00907285   -0.01096083
     atom   30 type  1   force =     0.01552989    0.00948777   -0.01694091
     atom   31 type  1   force =    -0.00192949    0.00228906    0.00127890
     atom   32 type  1   force =    -0.00221507   -0.00278570   -0.00470704
     atom   33 type  2   force =     0.00114693   -0.02013999   -0.00051777
     atom   34 type  2   force =    -0.00504993    0.01112076    0.01080627
     atom   35 type  2   force =    -0.01541431   -0.00053331   -0.00289827
     atom   36 type  2   force =    -0.00063566    0.00999375    0.00008453
     atom   37 type  2   force =     0.00769431    0.00663892    0.01252899
     atom   38 type  2   force =    -0.00223721   -0.00445974    0.00424916
     atom   39 type  2   force =     0.00270915   -0.00038250   -0.00196388
     atom   40 type  2   force =     0.02003913    0.01349362    0.02917334
     atom   41 type  2   force =     0.01063877   -0.00867914    0.00765351
     atom   42 type  2   force =     0.00047975   -0.01199432   -0.00368144
     atom   43 type  2   force =    -0.00791431    0.01642170    0.00197854
     atom   44 type  2   force =    -0.01892255    0.01059719    0.02147274
     atom   45 type  2   force =     0.00469390   -0.02001326    0.01878310
     atom   46 type  2   force =    -0.00462189   -0.00705264    0.00152124
     atom   47 type  2   force =     0.00373569    0.00121895    0.00996188
     atom   48 type  2   force =     0.00379324    0.00499154    0.00929769

     Total force =     0.102134     Total SCF correction =     0.000474


     Computing stress (Cartesian axis) and pressure


     negative rho (up, down):  1.784E+00 0.000E+00
          total   stress  (Ry/bohr**3)                   (kbar)     P=      -42.25
  -0.00030034  -0.00000002   0.00000079          -44.18       -0.00        0.12
  -0.00000002  -0.00030221  -0.00000135           -0.00      -44.46       -0.20
   0.00000079  -0.00000135  -0.00025912            0.12       -0.20      -38.12


     Writing all to output data dir /root/qe_scratch/pristine_TiO2.save/ :
     XML data file, charge density, pseudopotentials, collected wavefunctions
 
     init_run     :     13.99s CPU     17.76s WALL (       1 calls)
     electrons    :    729.74s CPU    890.27s WALL (       1 calls)
     forces       :      1.09s CPU      1.14s WALL (       1 calls)
     stress       :      1.06s CPU      1.12s WALL (       1 calls)

     Called by init_run:
     wfcinit      :      0.31s CPU      0.51s WALL (       1 calls)
     potinit      :     12.80s CPU     16.06s WALL (       1 calls)
     hinit0       :      0.38s CPU      0.46s WALL (       1 calls)

     Called by electrons:
     c_bands      :     53.28s CPU     53.50s WALL (      75 calls)
     sum_band     :      7.63s CPU      7.68s WALL (      75 calls)
     v_of_rho     :      5.93s CPU      7.89s WALL (      76 calls)
     newd         :     19.68s CPU     19.88s WALL (      76 calls)
                                       19.88s GPU  (      76 calls)
     PAW_pot      :    637.17s CPU    794.90s WALL (      76 calls)
     mix_rho      :      3.95s CPU      4.13s WALL (      75 calls)

     Called by c_bands:
     init_us_2    :      0.24s CPU      0.25s WALL (     151 calls)
     cegterg      :     52.45s CPU     52.62s WALL (      75 calls)

     Called by *egterg:
     cdiaghg      :      6.06s CPU      6.13s WALL (     395 calls)
                                        6.13s GPU  (     395 calls)
     h_psi        :     19.83s CPU     20.12s WALL (     396 calls)
                                       20.11s GPU  (     396 calls)
     s_psi        :      0.69s CPU      0.69s WALL (     396 calls)
     g_psi        :      0.00s CPU      0.09s WALL (     320 calls)
                                        0.09s GPU  (     320 calls)

     Called by h_psi:
     h_psi:calbec :      0.10s CPU      5.24s WALL (     396 calls)
                                        5.24s GPU  (     396 calls)
     vloc_psi     :      8.95s CPU      9.06s WALL (     396 calls)
                                        9.06s GPU  (     396 calls)
     add_vuspsi   :      0.66s CPU      5.75s WALL (     396 calls)
                                        5.75s GPU  (     396 calls)

     General routines
     calbec       :      0.10s CPU      0.26s WALL (     476 calls)
     fft          :      8.01s CPU     10.59s WALL (    1011 calls)
                                        0.18s GPU  (     935 calls)
     ffts         :      4.13s CPU      5.05s WALL (     151 calls)
                                        0.01s GPU  (      75 calls)
     fftw         :      0.11s CPU      8.90s WALL (    7133 calls)
                                        8.87s GPU  (    7133 calls)
     interpolate  :     12.68s CPU     16.03s WALL (      76 calls)
 
     Parallel routines
 
     PWSCF        :  12m26.50s CPU  15m11.13s WALL

 
   This run was terminated on:  10: 9:47   6May2026            

=------------------------------------------------------------------------------=
   JOB DONE.
=------------------------------------------------------------------------------=
Warning: ieee_invalid is signaling
Warning: ieee_divide_by_zero is signaling
Warning: ieee_inexact is signaling
FORTRAN STOP
