--------------------------------------------------------------------------
WARNING: Open MPI tried to bind a process but failed.  This is a
warning only; your job will continue, though performance may
be degraded.

  Local host:        3253031b5b37
  Application name:  /root/qe-7.3.1/bin/pw.x
  Error message:     failed to bind memory
  Location:          ../../../../../orte/mca/rtc/hwloc/rtc_hwloc.c:447

--------------------------------------------------------------------------

     Program PWSCF v.7.3.1 starts on  6May2026 at  9:16:24 

     This program is part of the open-source Quantum ESPRESSO suite
     for quantum simulation of materials; please cite
         "P. Giannozzi et al., J. Phys.:Condens. Matter 21 395502 (2009);
         "P. Giannozzi et al., J. Phys.:Condens. Matter 29 465901 (2017);
         "P. Giannozzi et al., J. Chem. Phys. 152 154105 (2020);
          URL http://www.quantum-espresso.org", 
     in publications or presentations arising from this work. More details at
     http://www.quantum-espresso.org/quote

     Parallel version (MPI & OpenMP), running on       8 processor cores
     Number of MPI processes:                 1
     Threads/MPI process:                     8

     MPI processes distributed on     1 nodes
     86804 MiB available memory on the printing compute node when the environment starts
 
     Reading input from pristine_NbSe2.in

     Current dimensions of program PWSCF are:
     Max number of different atomic species (ntypx) = 10
     Max number of k-points (npk) =  40000
     Max angular momentum in pseudopotentials (lmaxx) =  4
     file Nb.UPF: wavefunction(s)  4S 4P 4D renormalized
 
     Subspace diagonalization in iterative solution of the eigenvalue problem:
     a serial algorithm will be used

 
     G-vector sticks info
     --------------------
     sticks:   dense  smooth     PW     G-vecs:    dense   smooth      PW
     Sum        4807    3217    805               474203   258301   32365
 
     Using Slab Decomposition
 


     bravais-lattice index     =            0
     lattice parameter (alat)  =      19.6807  a.u.
     unit-cell volume          =   11635.2704 (a.u.)^3
     number of atoms/cell      =           27
     number of atomic types    =            2
     number of electrons       =       225.00
     number of Kohn-Sham states=          136
     kinetic-energy cutoff     =      30.0000  Ry
     charge density cutoff     =     180.0000  Ry
     scf convergence threshold =      1.0E-07
     mixing beta               =       0.4000
     number of iterations used =            8  plain     mixing
     Exchange-correlation= PBE
                           (   1   4   3   4   0   0   0)

     GPU acceleration is ACTIVE.  1 visible GPUs per MPI rank


     celldm(1)=  19.680721  celldm(2)=   0.000000  celldm(3)=   0.000000
     celldm(4)=   0.000000  celldm(5)=   0.000000  celldm(6)=   0.000000

     crystal axes: (cart. coord. in units of alat)
               a(1) = (   1.000000   0.000000   0.000000 )  
               a(2) = (  -0.500000   0.866025   0.000000 )  
               a(3) = (   0.000000   0.000000   1.762475 )  

     reciprocal axes: (cart. coord. in units 2 pi/alat)
               b(1) = (  1.000000  0.577350 -0.000000 )  
               b(2) = (  0.000000  1.154701  0.000000 )  
               b(3) = (  0.000000 -0.000000  0.567384 )  


     PseudoPot. # 1 for Nb read from file:
     /root/qe_pseudos/Nb.UPF
     MD5 check sum: dcedcbb129af9a7271e4748e5febedb1
     Pseudo is Projector augmented-wave + core cor, Zval = 13.0
     Generated using &quot;atomic&quot; code by A. Dal Corso  v.6.2.2
     Shape of augmentation charge: PSQ
     Using radial grid of 1227 points,  6 beta functions with: 
                l(1) =   0
                l(2) =   0
                l(3) =   1
                l(4) =   1
                l(5) =   2
                l(6) =   2
     Q(r) pseudized with 0 coefficients 


     PseudoPot. # 2 for Se read from file:
     /root/qe_pseudos/Se.UPF
     MD5 check sum: 8e2a6847b5cb9faee9497ebb573e71ea
     Pseudo is Ultrasoft + core correction, Zval =  6.0
     Generated using &quot;atomic&quot; code by A. Dal Corso  v.6.3
     Using radial grid of 1211 points,  4 beta functions with: 
                l(1) =   0
                l(2) =   0
                l(3) =   1
                l(4) =   1
     Q(r) pseudized with 0 coefficients 


     atomic species   valence    mass     pseudopotential
     Nb               13.00    92.90640     Nb( 1.00)
     Se                6.00    78.97100     Se( 1.00)

     No symmetry found



   Cartesian axes

     site n.     atom                  positions (alat units)
         1        Nb     tau(   1) = (  -0.0100598  -0.0057972   0.8832784  )
         2        Nb     tau(   2) = (   0.3322138   0.5786193   0.8853029  )
         3        Nb     tau(   3) = (   0.5005714   0.2890029   0.8818969  )
         4        Nb     tau(   4) = (  -0.1668397   0.2886895   0.8821470  )
         5        Nb     tau(   5) = (   0.6671375  -0.0016346   0.8852446  )
         6        Nb     tau(   6) = (   0.0007191   0.5777728   0.8839257  )
         7        Nb     tau(   7) = (  -0.3334298   0.5771711   0.8821551  )
         8        Nb     tau(   8) = (   0.1669253   0.2986312   0.8842215  )
         9        Nb     tau(   9) = (   0.3419961  -0.0046593   0.8842298  )
        10        Se     tau(  10) = (   0.5017303   0.0980713   1.0443053  )
        11        Se     tau(  11) = (   0.5006235   0.6714653   1.0445070  )
        12        Se     tau(  12) = (   0.1650934   0.0954045   1.0296128  )
        13        Se     tau(  13) = (   0.6671187   0.3851681   0.7221278  )
        14        Se     tau(  14) = (   0.6669444   0.3850267   1.0410323  )
        15        Se     tau(  15) = (   0.1662516   0.0960097   0.7344419  )
        16        Se     tau(  16) = (   0.8313760   0.0962078   0.7218710  )
        17        Se     tau(  17) = (   0.8317615   0.0978141   1.0444501  )
        18        Se     tau(  18) = (  -0.0024202   0.3859430   1.0443859  )
        19        Se     tau(  19) = (   0.1670637   0.6737415   0.7224505  )
        20        Se     tau(  20) = (   0.1664372   0.6733920   1.0441248  )
        21        Se     tau(  21) = (  -0.0004451   0.3852205   0.7219730  )
        22        Se     tau(  22) = (   0.3337470   0.3859675   0.7223782  )
        23        Se     tau(  23) = (   0.4990363   0.6719646   0.7219608  )
        24        Se     tau(  24) = (  -0.1670346   0.6710096   1.0442649  )
        25        Se     tau(  25) = (   0.5010114   0.0959709   0.7223803  )
        26        Se     tau(  26) = (  -0.1666487   0.6730509   0.7220223  )
        27        Se     tau(  27) = (   0.3358342   0.3855064   1.0443388  )

     number of k points=     1  Methfessel-Paxton smearing, width (Ry)=  0.0100
                       cart. coord. in units 2pi/alat
        k(    1) = (   0.0000000   0.0000000   0.0000000), wk =   2.0000000

     Dense  grid:   474203 G-vectors     FFT dimensions: (  90,  90, 150)

     Smooth grid:   258301 G-vectors     FFT dimensions: (  72,  72, 125)

     Estimated max dynamical RAM per process >       2.19 GB

     Check: negative core charge=   -0.000002

     Initial potential from superposition of free atoms

     starting charge     224.9869, renormalised to     225.0000

     negative rho (up, down):  1.192E-02 0.000E+00
     Starting wfcs are  189 randomized atomic wfcs
     Checking if some PAW data can be deallocated... 

     total cpu time spent up to now is       12.2 secs

     Self-consistent Calculation

     iteration #  1     ecut=    30.00 Ry     beta= 0.40
     Davidson diagonalization with overlap
     ethr =  1.00E-02,  avg # of iterations =  2.0

     Threshold (ethr) on eigenvalues was too large:
     Diagonalizing with lowered threshold

     Davidson diagonalization with overlap
     ethr =  3.49E-04,  avg # of iterations =  2.0

     negative rho (up, down):  1.417E-02 0.000E+00

     total cpu time spent up to now is       17.1 secs

     total energy              =   -3384.41749973 Ry
     estimated scf accuracy    <       0.94043786 Ry

     iteration #  2     ecut=    30.00 Ry     beta= 0.40
     Davidson diagonalization with overlap
     ethr =  4.18E-04,  avg # of iterations =  3.0

     negative rho (up, down):  1.549E-02 0.000E+00

     total cpu time spent up to now is       21.8 secs

     total energy              =   -3384.36525824 Ry
     estimated scf accuracy    <       1.25257788 Ry

     iteration #  3     ecut=    30.00 Ry     beta= 0.40
     Davidson diagonalization with overlap
     ethr =  4.18E-04,  avg # of iterations =  4.0

     negative rho (up, down):  1.624E-02 0.000E+00

     total cpu time spent up to now is       26.6 secs

     total energy              =   -3384.47670461 Ry
     estimated scf accuracy    <       1.24223946 Ry

     iteration #  4     ecut=    30.00 Ry     beta= 0.40
     Davidson diagonalization with overlap
     ethr =  4.18E-04,  avg # of iterations =  2.0

     negative rho (up, down):  1.667E-02 0.000E+00

     total cpu time spent up to now is       31.2 secs

     total energy              =   -3384.54959556 Ry
     estimated scf accuracy    <       0.30859646 Ry

     iteration #  5     ecut=    30.00 Ry     beta= 0.40
     Davidson diagonalization with overlap
     ethr =  1.37E-04,  avg # of iterations =  2.0

     negative rho (up, down):  1.695E-02 0.000E+00

     total cpu time spent up to now is       35.8 secs

     total energy              =   -3384.56809213 Ry
     estimated scf accuracy    <       0.30165251 Ry

     iteration #  6     ecut=    30.00 Ry     beta= 0.40
     Davidson diagonalization with overlap
     ethr =  1.34E-04,  avg # of iterations =  1.0

     negative rho (up, down):  1.708E-02 0.000E+00

     total cpu time spent up to now is       40.3 secs

     total energy              =   -3384.58822548 Ry
     estimated scf accuracy    <       0.01278249 Ry

     iteration #  7     ecut=    30.00 Ry     beta= 0.40
     Davidson diagonalization with overlap
     ethr =  5.68E-06,  avg # of iterations = 10.0

     negative rho (up, down):  1.718E-02 0.000E+00

     total cpu time spent up to now is       45.2 secs

     total energy              =   -3384.58572897 Ry
     estimated scf accuracy    <       0.06545229 Ry

     iteration #  8     ecut=    30.00 Ry     beta= 0.40
     Davidson diagonalization with overlap
     ethr =  5.68E-06,  avg # of iterations =  7.0

     negative rho (up, down):  1.722E-02 0.000E+00

     total cpu time spent up to now is       50.0 secs

     total energy              =   -3384.58971958 Ry
     estimated scf accuracy    <       0.01236500 Ry

     iteration #  9     ecut=    30.00 Ry     beta= 0.40
     Davidson diagonalization with overlap
     ethr =  5.50E-06,  avg # of iterations =  1.0

     negative rho (up, down):  1.725E-02 0.000E+00

     total cpu time spent up to now is       54.6 secs

     total energy              =   -3384.59024466 Ry
     estimated scf accuracy    <       0.00118001 Ry

     iteration # 10     ecut=    30.00 Ry     beta= 0.40
     Davidson diagonalization with overlap
     ethr =  5.24E-07,  avg # of iterations =  2.0

     negative rho (up, down):  1.727E-02 0.000E+00

     total cpu time spent up to now is       59.2 secs

     total energy              =   -3384.59032894 Ry
     estimated scf accuracy    <       0.00163224 Ry

     iteration # 11     ecut=    30.00 Ry     beta= 0.40
     Davidson diagonalization with overlap
     ethr =  5.24E-07,  avg # of iterations =  1.0

     negative rho (up, down):  1.728E-02 0.000E+00

     total cpu time spent up to now is       63.7 secs

     total energy              =   -3384.59042151 Ry
     estimated scf accuracy    <       0.00013005 Ry

     iteration # 12     ecut=    30.00 Ry     beta= 0.40
     Davidson diagonalization with overlap
     ethr =  5.78E-08,  avg # of iterations =  4.0

     negative rho (up, down):  1.728E-02 0.000E+00

     total cpu time spent up to now is       68.3 secs

     total energy              =   -3384.59043642 Ry
     estimated scf accuracy    <       0.00009447 Ry

     iteration # 13     ecut=    30.00 Ry     beta= 0.40
     Davidson diagonalization with overlap
     ethr =  4.20E-08,  avg # of iterations =  2.0

     negative rho (up, down):  1.728E-02 0.000E+00

     total cpu time spent up to now is       72.9 secs

     total energy              =   -3384.59043464 Ry
     estimated scf accuracy    <       0.00019783 Ry

     iteration # 14     ecut=    30.00 Ry     beta= 0.40
     Davidson diagonalization with overlap
     ethr =  4.20E-08,  avg # of iterations =  1.0

     negative rho (up, down):  1.728E-02 0.000E+00

     total cpu time spent up to now is       77.5 secs

     total energy              =   -3384.59044716 Ry
     estimated scf accuracy    <       0.00001482 Ry

     iteration # 15     ecut=    30.00 Ry     beta= 0.40
     Davidson diagonalization with overlap
     ethr =  6.59E-09,  avg # of iterations =  2.0

     negative rho (up, down):  1.728E-02 0.000E+00

     total cpu time spent up to now is       82.0 secs

     total energy              =   -3384.59044703 Ry
     estimated scf accuracy    <       0.00002369 Ry

     iteration # 16     ecut=    30.00 Ry     beta= 0.40
     Davidson diagonalization with overlap
     ethr =  6.59E-09,  avg # of iterations =  1.0

     negative rho (up, down):  1.728E-02 0.000E+00

     total cpu time spent up to now is       86.6 secs

     total energy              =   -3384.59044851 Ry
     estimated scf accuracy    <       0.00000279 Ry

     iteration # 17     ecut=    30.00 Ry     beta= 0.40
     Davidson diagonalization with overlap
     ethr =  1.24E-09,  avg # of iterations =  2.0

     negative rho (up, down):  1.728E-02 0.000E+00

     total cpu time spent up to now is       91.3 secs

     total energy              =   -3384.59044836 Ry
     estimated scf accuracy    <       0.00001008 Ry

     iteration # 18     ecut=    30.00 Ry     beta= 0.40
     Davidson diagonalization with overlap
     ethr =  1.24E-09,  avg # of iterations =  2.0

     negative rho (up, down):  1.728E-02 0.000E+00

     total cpu time spent up to now is       95.8 secs

     total energy              =   -3384.59044891 Ry
     estimated scf accuracy    <       0.00000286 Ry

     iteration # 19     ecut=    30.00 Ry     beta= 0.40
     Davidson diagonalization with overlap
     ethr =  1.24E-09,  avg # of iterations =  1.0

     negative rho (up, down):  1.728E-02 0.000E+00

     total cpu time spent up to now is      100.3 secs

     total energy              =   -3384.59044900 Ry
     estimated scf accuracy    <       0.00000062 Ry

     iteration # 20     ecut=    30.00 Ry     beta= 0.40
     Davidson diagonalization with overlap
     ethr =  2.77E-10,  avg # of iterations =  2.0

     negative rho (up, down):  1.728E-02 0.000E+00

     total cpu time spent up to now is      104.9 secs

     total energy              =   -3384.59044898 Ry
     estimated scf accuracy    <       0.00000176 Ry

     iteration # 21     ecut=    30.00 Ry     beta= 0.40
     Davidson diagonalization with overlap
     ethr =  2.77E-10,  avg # of iterations =  1.0

     negative rho (up, down):  1.728E-02 0.000E+00

     total cpu time spent up to now is      109.4 secs

     total energy              =   -3384.59044908 Ry
     estimated scf accuracy    <       0.00000021 Ry

     iteration # 22     ecut=    30.00 Ry     beta= 0.40
     Davidson diagonalization with overlap
     ethr =  9.54E-11,  avg # of iterations =  1.0

     negative rho (up, down):  1.728E-02 0.000E+00

     total cpu time spent up to now is      114.0 secs

     End of self-consistent calculation

          k = 0.0000 0.0000 0.0000 ( 32365 PWs)   bands (ev):

   -55.5210 -55.5185 -55.5071 -55.4887 -55.4811 -55.4808 -55.4385 -55.4194
   -55.4142 -31.7109 -31.7105 -31.7024 -31.6688 -31.6389 -31.6387 -31.6198
   -31.6169 -31.6017 -31.5891 -31.5795 -31.5609 -31.5558 -31.5454 -31.5290
   -31.5284 -31.5269 -31.5157 -31.5114 -31.5077 -31.4915 -31.4852 -31.4827
   -31.4817 -31.4407 -31.4176 -31.4165 -14.0915 -13.1834 -13.1298 -13.1108
   -13.1103 -13.0979 -13.0976 -13.0842 -12.7057 -12.6975 -12.6858 -12.6471
   -12.6448 -12.5635 -12.5471 -12.5095 -12.4114 -12.2892  -5.3477  -4.9386
    -4.9167  -4.9126  -4.8933  -4.8861  -4.8815  -4.8807  -4.8345  -4.4167
    -4.4158  -4.0382  -4.0324  -4.0194  -4.0162  -4.0147  -4.0008  -3.9993
    -3.9754  -3.9371  -3.9314  -3.9117  -3.8841  -3.8813  -3.8315  -3.6031
    -3.5791  -2.9452  -2.9426  -2.7086  -2.6403  -2.6397  -2.5503  -2.5343
    -2.5332  -2.3665  -2.3636  -2.1763  -2.0766  -1.8769  -1.8129  -1.8072
    -1.7608  -1.7496  -1.7470  -1.6372  -1.6282  -1.6012  -1.4538  -1.4437
    -1.3736  -1.3487  -1.3441  -1.1555  -0.8068  -0.7965  -0.7960  -0.7879
    -0.7821  -0.7412   0.0962   0.1070   0.1780   1.4139   1.4151   1.8164
     2.0050   2.0066   2.0891   2.0948   2.0990   2.1200   2.1596   2.1615
     2.2557   2.2723   2.3855   2.4889   2.4970   2.7023   2.7418   2.7449

     the Fermi energy is    -0.7412 ev

!    total energy              =   -3384.59044908 Ry
     estimated scf accuracy    <       0.00000003 Ry
     smearing contrib. (-TS)   =      -0.01127082 Ry
     internal energy E=F+TS    =   -3384.57917826 Ry

     The total energy is F=E-TS. E is the sum of the following terms:
     one-electron contribution =   -6583.47003966 Ry
     hartree contribution      =    3310.35002928 Ry
     xc contribution           =    -282.96287722 Ry
     ewald contribution        =    2140.36686011 Ry
     one-center paw contrib.   =   -1968.86315078 Ry

     convergence has been achieved in  22 iterations

     negative rho (up, down):  1.728E-02 0.000E+00

     Forces acting on atoms (cartesian axes, Ry/au):

     atom    1 type  1   force =     0.02570970    0.01498075   -0.00404923
     atom    2 type  1   force =    -0.00275680   -0.00171042   -0.00961041
     atom    3 type  1   force =    -0.00076191   -0.00041063   -0.00175714
     atom    4 type  1   force =     0.00011060   -0.00012698   -0.00142866
     atom    5 type  1   force =    -0.00264873   -0.00152973   -0.00954525
     atom    6 type  1   force =     0.00456446    0.00263386   -0.00736240
     atom    7 type  1   force =    -0.00005948    0.00024820   -0.00139029
     atom    8 type  1   force =    -0.00131637   -0.02601201   -0.00312251
     atom    9 type  1   force =    -0.02323443    0.01162172   -0.00311647
     atom   10 type  2   force =    -0.00206782    0.00035970    0.00305372
     atom   11 type  2   force =     0.00115893    0.00082751    0.00324540
     atom   12 type  2   force =     0.00209105    0.00117719    0.04225851
     atom   13 type  2   force =    -0.00056560   -0.00038618   -0.00279104
     atom   14 type  2   force =    -0.00032489   -0.00014085    0.00585016
     atom   15 type  2   force =    -0.00024434   -0.00000729   -0.03124593
     atom   16 type  2   force =    -0.00085523    0.00135175   -0.00025765
     atom   17 type  2   force =     0.00128320    0.00056892    0.00325410
     atom   18 type  2   force =     0.00121458   -0.00257199    0.00190707
     atom   19 type  2   force =    -0.00134746   -0.00071035    0.00885449
     atom   20 type  2   force =    -0.00128823   -0.00057800    0.00183262
     atom   21 type  2   force =    -0.00161686    0.00137905    0.00002360
     atom   22 type  2   force =     0.00209502    0.00087020    0.00051986
     atom   23 type  2   force =     0.00070151   -0.00156435   -0.00061439
     atom   24 type  2   force =    -0.00151646    0.00226622    0.00231983
     atom   25 type  2   force =     0.00200379    0.00160060    0.00035249
     atom   26 type  2   force =     0.00041061   -0.00210451   -0.00007296
     atom   27 type  2   force =    -0.00073886   -0.00203238    0.00289246

     Total force =     0.074619     Total SCF correction =     0.000637


     Computing stress (Cartesian axis) and pressure


     negative rho (up, down):  1.728E-02 0.000E+00
          total   stress  (Ry/bohr**3)                   (kbar)     P=      -15.01
  -0.00009299   0.00000044  -0.00000031          -13.68        0.06       -0.05
   0.00000044  -0.00009357  -0.00000021            0.06      -13.77       -0.03
  -0.00000031  -0.00000021  -0.00011949           -0.05       -0.03      -17.58


     Writing all to output data dir /root/qe_scratch/pristine_NbSe2.save/ :
     XML data file, charge density, pseudopotentials, collected wavefunctions
 
     init_run     :      8.91s CPU     11.64s WALL (       1 calls)
     electrons    :     84.78s CPU    101.87s WALL (       1 calls)
     forces       :      0.83s CPU      0.87s WALL (       1 calls)
     stress       :      0.52s CPU      0.54s WALL (       1 calls)

     Called by init_run:
     wfcinit      :      0.20s CPU      0.41s WALL (       1 calls)
     potinit      :      7.93s CPU     10.24s WALL (       1 calls)
     hinit0       :      0.37s CPU      0.43s WALL (       1 calls)

     Called by electrons:
     c_bands      :      5.19s CPU      5.22s WALL (      23 calls)
     sum_band     :      1.43s CPU      1.43s WALL (      23 calls)
     v_of_rho     :      1.74s CPU      2.36s WALL (      23 calls)
     newd         :      5.10s CPU      5.19s WALL (      23 calls)
                                        5.19s GPU  (      23 calls)
     PAW_pot      :     71.00s CPU     87.43s WALL (      23 calls)
     mix_rho      :      0.84s CPU      0.91s WALL (      23 calls)

     Called by c_bands:
     init_us_2    :      0.04s CPU      0.05s WALL (      47 calls)
     cegterg      :      5.05s CPU      5.08s WALL (      23 calls)

     Called by *egterg:
     cdiaghg      :      0.69s CPU      0.72s WALL (      78 calls)
                                        0.72s GPU  (      78 calls)
     h_psi        :      2.30s CPU      2.49s WALL (      80 calls)
                                        2.49s GPU  (      80 calls)
     s_psi        :      0.08s CPU      0.08s WALL (      80 calls)
     g_psi        :      0.00s CPU      0.01s WALL (      56 calls)
                                        0.01s GPU  (      56 calls)

     Called by h_psi:
     h_psi:calbec :      0.09s CPU      0.73s WALL (      80 calls)
                                        0.73s GPU  (      80 calls)
     vloc_psi     :      1.24s CPU      1.26s WALL (      80 calls)
                                        1.26s GPU  (      80 calls)
     add_vuspsi   :      0.08s CPU      0.49s WALL (      80 calls)
                                        0.49s GPU  (      80 calls)

     General routines
     calbec       :      0.09s CPU      0.26s WALL (     108 calls)
     fft          :      4.71s CPU      6.26s WALL (     323 calls)
                                        0.05s GPU  (     300 calls)
     ffts         :      2.18s CPU      2.82s WALL (      46 calls)
                                        0.00s GPU  (      23 calls)
     fftw         :      0.03s CPU      1.27s WALL (    1167 calls)
                                        1.27s GPU  (    1167 calls)
     interpolate  :      7.01s CPU      9.17s WALL (      23 calls)
 
     Parallel routines
 
     PWSCF        :   1m35.70s CPU   1m55.68s WALL

 
   This run was terminated on:   9:18:20   6May2026            

=------------------------------------------------------------------------------=
   JOB DONE.
=------------------------------------------------------------------------------=
Warning: ieee_invalid is signaling
Warning: ieee_divide_by_zero is signaling
Warning: ieee_inexact is signaling
FORTRAN STOP
