--------------------------------------------------------------------------
WARNING: Open MPI tried to bind a process but failed.  This is a
warning only; your job will continue, though performance may
be degraded.

  Local host:        3253031b5b37
  Application name:  /root/qe-7.3.1/bin/pw.x
  Error message:     failed to bind memory
  Location:          ../../../../../orte/mca/rtc/hwloc/rtc_hwloc.c:447

--------------------------------------------------------------------------

     Program PWSCF v.7.3.1 starts on  6May2026 at  8:24:51 

     This program is part of the open-source Quantum ESPRESSO suite
     for quantum simulation of materials; please cite
         "P. Giannozzi et al., J. Phys.:Condens. Matter 21 395502 (2009);
         "P. Giannozzi et al., J. Phys.:Condens. Matter 29 465901 (2017);
         "P. Giannozzi et al., J. Chem. Phys. 152 154105 (2020);
          URL http://www.quantum-espresso.org", 
     in publications or presentations arising from this work. More details at
     http://www.quantum-espresso.org/quote

     Parallel version (MPI & OpenMP), running on       8 processor cores
     Number of MPI processes:                 1
     Threads/MPI process:                     8

     MPI processes distributed on     1 nodes
     88382 MiB available memory on the printing compute node when the environment starts
 
     Reading input from pristine_Ge2.in

     Current dimensions of program PWSCF are:
     Max number of different atomic species (ntypx) = 10
     Max number of k-points (npk) =  40000
     Max angular momentum in pseudopotentials (lmaxx) =  4
     file Ge.UPF: wavefunction(s)  4S renormalized
 
     Subspace diagonalization in iterative solution of the eigenvalue problem:
     a serial algorithm will be used

 
     G-vector sticks info
     --------------------
     sticks:   dense  smooth     PW     G-vecs:    dense   smooth      PW
     Sum        6505    4339   1069               533931   290531   36195
 
     Using Slab Decomposition
 


     bravais-lattice index     =            0
     lattice parameter (alat)  =      22.9427  a.u.
     unit-cell volume          =   13093.6731 (a.u.)^3
     number of atoms/cell      =           18
     number of atomic types    =            1
     number of electrons       =        72.00
     number of Kohn-Sham states=           43
     kinetic-energy cutoff     =      30.0000  Ry
     charge density cutoff     =     180.0000  Ry
     scf convergence threshold =      1.0E-07
     mixing beta               =       0.4000
     number of iterations used =            8  plain     mixing
     Exchange-correlation= SLA  PW   PBX  PBC
                           (   1   4   3   4   0   0   0)

     GPU acceleration is ACTIVE.  1 visible GPUs per MPI rank


     celldm(1)=  22.942683  celldm(2)=   0.000000  celldm(3)=   0.000000
     celldm(4)=   0.000000  celldm(5)=   0.000000  celldm(6)=   0.000000

     crystal axes: (cart. coord. in units of alat)
               a(1) = (   1.000000   0.000000   0.000000 )  
               a(2) = (  -0.500000   0.866025   0.000000 )  
               a(3) = (   0.000000   0.000000   1.251982 )  

     reciprocal axes: (cart. coord. in units 2 pi/alat)
               b(1) = (  1.000000  0.577350 -0.000000 )  
               b(2) = (  0.000000  1.154701  0.000000 )  
               b(3) = (  0.000000 -0.000000  0.798733 )  


     PseudoPot. # 1 for Ge read from file:
     /root/qe_pseudos/Ge.UPF
     MD5 check sum: fa6acec385508fbd41db1ad5f2fba766
     Pseudo is Projector augmented-wave + core cor, Zval =  4.0
     Generated using "atomic" code by A. Dal Corso (espresso distribution)
     Shape of augmentation charge: BESSEL
     Using radial grid of 1207 points,  4 beta functions with: 
                l(1) =   0
                l(2) =   0
                l(3) =   1
                l(4) =   1
     Q(r) pseudized with 0 coefficients 


     atomic species   valence    mass     pseudopotential
     Ge                4.00    72.63000     Ge( 1.00)

     No symmetry found



   Cartesian axes

     site n.     atom                  positions (alat units)
         1        Ge     tau(   1) = (   0.0000304   0.0017394   0.6556585  )
         2        Ge     tau(   2) = (   0.3329291   0.5781419   0.6607532  )
         3        Ge     tau(   3) = (   0.6649940   0.3855920   0.5952408  )
         4        Ge     tau(   4) = (   0.5001511   0.2879571   0.6546131  )
         5        Ge     tau(   5) = (   0.8330083   0.0947765   0.5924873  )
         6        Ge     tau(   6) = (   0.6665407  -0.0006117   0.6556024  )
         7        Ge     tau(   7) = (   0.1674315   0.6740128   0.5945473  )
         8        Ge     tau(   8) = (   0.0000270   0.5782321   0.6613797  )
         9        Ge     tau(   9) = (   0.4999988   0.6705499   0.5994279  )
        10        Ge     tau(  10) = (   0.3350425   0.3855021   0.5951033  )
        11        Ge     tau(  11) = (   0.5000234   0.0930520   0.5955458  )
        12        Ge     tau(  12) = (   0.3334390  -0.0007088   0.6554683  )
        13        Ge     tau(  13) = (  -0.1674450   0.6739752   0.5943809  )
        14        Ge     tau(  14) = (  -0.3330262   0.5783668   0.6607519  )
        15        Ge     tau(  15) = (  -0.0001447   0.3852085   0.5953028  )
        16        Ge     tau(  16) = (  -0.1780950   0.2819353   0.6759253  )
        17        Ge     tau(  17) = (   0.1669964   0.0947479   0.5927914  )
        18        Ge     tau(  18) = (   0.1781480   0.2818664   0.6760881  )

     number of k points=     1  Methfessel-Paxton smearing, width (Ry)=  0.0100
                       cart. coord. in units 2pi/alat
        k(    1) = (   0.0000000   0.0000000   0.0000000), wk =   2.0000000

     Dense  grid:   533931 G-vectors     FFT dimensions: ( 100, 100, 125)

     Smooth grid:   290531 G-vectors     FFT dimensions: (  80,  80, 108)

     Estimated max dynamical RAM per process >       1.16 GB

     Check: negative core charge=   -0.000001

     Initial potential from superposition of free atoms

     starting charge      71.9862, renormalised to      72.0000

     negative rho (up, down):  2.053E-01 0.000E+00
     Starting wfcs are   72 randomized atomic wfcs
     Checking if some PAW data can be deallocated... 

     total cpu time spent up to now is        9.1 secs

     Self-consistent Calculation

     iteration #  1     ecut=    30.00 Ry     beta= 0.40
     Davidson diagonalization with overlap
     ethr =  1.00E-02,  avg # of iterations =  2.0

     Threshold (ethr) on eigenvalues was too large:
     Diagonalizing with lowered threshold

     Davidson diagonalization with overlap
     ethr =  6.13E-04,  avg # of iterations =  2.0

     negative rho (up, down):  2.806E-01 0.000E+00

     total cpu time spent up to now is       12.2 secs

     total energy              =   -2953.06731609 Ry
     estimated scf accuracy    <       0.46875488 Ry

     iteration #  2     ecut=    30.00 Ry     beta= 0.40
     Davidson diagonalization with overlap
     ethr =  6.51E-04,  avg # of iterations =  1.0

     negative rho (up, down):  3.273E-01 0.000E+00

     total cpu time spent up to now is       15.3 secs

     total energy              =   -2953.03877653 Ry
     estimated scf accuracy    <       0.17430145 Ry

     iteration #  3     ecut=    30.00 Ry     beta= 0.40
     Davidson diagonalization with overlap
     ethr =  2.42E-04,  avg # of iterations =  2.0

     negative rho (up, down):  3.614E-01 0.000E+00

     total cpu time spent up to now is       18.2 secs

     total energy              =   -2953.05909977 Ry
     estimated scf accuracy    <       0.19812624 Ry

     iteration #  4     ecut=    30.00 Ry     beta= 0.40
     Davidson diagonalization with overlap
     ethr =  2.42E-04,  avg # of iterations =  1.0

     negative rho (up, down):  3.661E-01 0.000E+00

     total cpu time spent up to now is       21.2 secs

     total energy              =   -2953.07045794 Ry
     estimated scf accuracy    <       0.02528443 Ry

     iteration #  5     ecut=    30.00 Ry     beta= 0.40
     Davidson diagonalization with overlap
     ethr =  3.51E-05,  avg # of iterations =  2.0

     negative rho (up, down):  3.777E-01 0.000E+00

     total cpu time spent up to now is       24.1 secs

     total energy              =   -2953.07191482 Ry
     estimated scf accuracy    <       0.00680960 Ry

     iteration #  6     ecut=    30.00 Ry     beta= 0.40
     Davidson diagonalization with overlap
     ethr =  9.46E-06,  avg # of iterations =  4.0

     negative rho (up, down):  3.851E-01 0.000E+00

     total cpu time spent up to now is       27.2 secs

     total energy              =   -2953.07302255 Ry
     estimated scf accuracy    <       0.01334649 Ry

     iteration #  7     ecut=    30.00 Ry     beta= 0.40
     Davidson diagonalization with overlap
     ethr =  9.46E-06,  avg # of iterations =  1.0

     negative rho (up, down):  3.874E-01 0.000E+00

     total cpu time spent up to now is       30.2 secs

     total energy              =   -2953.07347471 Ry
     estimated scf accuracy    <       0.00174377 Ry

     iteration #  8     ecut=    30.00 Ry     beta= 0.40
     Davidson diagonalization with overlap
     ethr =  2.42E-06,  avg # of iterations =  2.0

     negative rho (up, down):  3.862E-01 0.000E+00

     total cpu time spent up to now is       33.1 secs

     total energy              =   -2953.07379689 Ry
     estimated scf accuracy    <       0.00045677 Ry

     iteration #  9     ecut=    30.00 Ry     beta= 0.40
     Davidson diagonalization with overlap
     ethr =  6.34E-07,  avg # of iterations =  2.0

     negative rho (up, down):  3.858E-01 0.000E+00

     total cpu time spent up to now is       36.1 secs

     total energy              =   -2953.07386201 Ry
     estimated scf accuracy    <       0.00009228 Ry

     iteration # 10     ecut=    30.00 Ry     beta= 0.40
     Davidson diagonalization with overlap
     ethr =  1.28E-07,  avg # of iterations =  2.0

     negative rho (up, down):  3.854E-01 0.000E+00

     total cpu time spent up to now is       39.1 secs

     total energy              =   -2953.07386711 Ry
     estimated scf accuracy    <       0.00003997 Ry

     iteration # 11     ecut=    30.00 Ry     beta= 0.40
     Davidson diagonalization with overlap
     ethr =  5.55E-08,  avg # of iterations =  2.0

     negative rho (up, down):  3.850E-01 0.000E+00

     total cpu time spent up to now is       42.0 secs

     total energy              =   -2953.07387322 Ry
     estimated scf accuracy    <       0.00000385 Ry

     iteration # 12     ecut=    30.00 Ry     beta= 0.40
     Davidson diagonalization with overlap
     ethr =  5.35E-09,  avg # of iterations =  4.0

     negative rho (up, down):  3.847E-01 0.000E+00

     total cpu time spent up to now is       45.1 secs

     total energy              =   -2953.07387423 Ry
     estimated scf accuracy    <       0.00000160 Ry

     iteration # 13     ecut=    30.00 Ry     beta= 0.40
     Davidson diagonalization with overlap
     ethr =  2.22E-09,  avg # of iterations =  2.0

     negative rho (up, down):  3.845E-01 0.000E+00

     total cpu time spent up to now is       48.1 secs

     total energy              =   -2953.07387443 Ry
     estimated scf accuracy    <       0.00000036 Ry

     iteration # 14     ecut=    30.00 Ry     beta= 0.40
     Davidson diagonalization with overlap
     ethr =  5.05E-10,  avg # of iterations =  4.0

     negative rho (up, down):  3.843E-01 0.000E+00

     total cpu time spent up to now is       51.1 secs

     total energy              =   -2953.07387449 Ry
     estimated scf accuracy    <       0.00000040 Ry

     iteration # 15     ecut=    30.00 Ry     beta= 0.40
     Davidson diagonalization with overlap
     ethr =  5.05E-10,  avg # of iterations =  1.0

     negative rho (up, down):  3.842E-01 0.000E+00

     total cpu time spent up to now is       54.0 secs

     End of self-consistent calculation

          k = 0.0000 0.0000 0.0000 ( 36195 PWs)   bands (ev):

   -13.3352 -12.3023 -12.2656 -12.2278 -12.1911 -12.1066 -11.8723 -10.3543
   -10.3501 -10.2893 -10.2786  -8.2933  -8.2418  -8.1914  -8.1112  -8.1027
    -8.0892  -6.0201  -5.7584  -5.7374  -4.1735  -4.1687  -4.1317  -4.1263
    -4.1041  -4.0593  -3.8689  -3.8471  -3.8115  -3.6428  -3.6274  -3.5328
    -2.4707  -2.4529  -2.4189  -2.3951  -2.3783  -2.3756  -1.4793  -1.2508
    -1.0963  -1.0483  -0.9488

     the Fermi energy is    -2.3840 ev

!    total energy              =   -2953.07387452 Ry
     total all-electron energy =    -75562.956704 Ry
     estimated scf accuracy    <       0.00000003 Ry
     smearing contrib. (-TS)   =      -0.01207168 Ry
     internal energy E=F+TS    =   -2953.06180283 Ry

     The total energy is F=E-TS. E is the sum of the following terms:
     one-electron contribution =    -425.00604426 Ry
     hartree contribution      =     227.14272353 Ry
     xc contribution           =    -289.37144604 Ry
     ewald contribution        =     111.62593178 Ry
     one-center paw contrib.   =   -2577.45296784 Ry

     convergence has been achieved in  15 iterations

     negative rho (up, down):  3.842E-01 0.000E+00

     Forces acting on atoms (cartesian axes, Ry/au):

     atom    1 type  1   force =    -0.00004199   -0.02253135   -0.00850612
     atom    2 type  1   force =    -0.00798604   -0.00868600   -0.00005031
     atom    3 type  1   force =     0.01096773    0.00350878    0.00432361
     atom    4 type  1   force =    -0.00023826   -0.01369787   -0.00927482
     atom    5 type  1   force =    -0.01034316    0.01539657    0.00375916
     atom    6 type  1   force =     0.01132038   -0.00820176    0.00054941
     atom    7 type  1   force =    -0.00203109    0.00020725    0.00288678
     atom    8 type  1   force =     0.00010767   -0.01279264   -0.01510668
     atom    9 type  1   force =    -0.00057110    0.02162567    0.00711125
     atom   10 type  1   force =    -0.01121184    0.00291948    0.00423009
     atom   11 type  1   force =    -0.00023629    0.01672486    0.00351287
     atom   12 type  1   force =    -0.01055411   -0.00841369    0.00060970
     atom   13 type  1   force =     0.00168769    0.00023094    0.00259097
     atom   14 type  1   force =     0.00882493   -0.00900520    0.00015109
     atom   15 type  1   force =     0.00017971   -0.01710504    0.03520006
     atom   16 type  1   force =     0.02401978    0.01179235   -0.01783380
     atom   17 type  1   force =     0.00990130    0.01545995    0.00363990
     atom   18 type  1   force =    -0.02379530    0.01256769   -0.01779316

     Total force =     0.085868     Total SCF correction =     0.000128


     Computing stress (Cartesian axis) and pressure


     negative rho (up, down):  3.842E-01 0.000E+00
          total   stress  (Ry/bohr**3)                   (kbar)     P=        0.93
   0.00001115   0.00000004   0.00000019            1.64        0.01        0.03
   0.00000004   0.00001756  -0.00000562            0.01        2.58       -0.83
   0.00000019  -0.00000562  -0.00000967            0.03       -0.83       -1.42


     Writing all to output data dir /root/qe_scratch/pristine_Ge2.save/ :
     XML data file, charge density, pseudopotentials, collected wavefunctions
 
     init_run     :      6.76s CPU      8.91s WALL (       1 calls)
     electrons    :     36.26s CPU     44.94s WALL (       1 calls)
     forces       :      0.79s CPU      0.83s WALL (       1 calls)
     stress       :      0.18s CPU      0.21s WALL (       1 calls)

     Called by init_run:
     wfcinit      :      0.28s CPU      0.45s WALL (       1 calls)
     potinit      :      5.92s CPU      7.68s WALL (       1 calls)
     hinit0       :      0.15s CPU      0.24s WALL (       1 calls)

     Called by electrons:
     c_bands      :      0.96s CPU      0.98s WALL (      16 calls)
     sum_band     :      0.48s CPU      0.48s WALL (      16 calls)
     v_of_rho     :      1.22s CPU      1.68s WALL (      16 calls)
     newd         :      3.53s CPU      3.63s WALL (      16 calls)
                                        3.63s GPU  (      16 calls)
     PAW_pot      :     29.55s CPU     37.79s WALL (      16 calls)
     mix_rho      :      0.58s CPU      0.63s WALL (      16 calls)

     Called by c_bands:
     init_us_2    :      0.02s CPU      0.02s WALL (      33 calls)
     cegterg      :      0.92s CPU      0.94s WALL (      16 calls)

     Called by *egterg:
     cdiaghg      :      0.19s CPU      0.21s WALL (      49 calls)
                                        0.21s GPU  (      49 calls)
     h_psi        :      0.70s CPU      0.85s WALL (      51 calls)
                                        0.85s GPU  (      51 calls)
     s_psi        :      0.03s CPU      0.03s WALL (      51 calls)
     g_psi        :      0.00s CPU      0.00s WALL (      34 calls)
                                        0.00s GPU  (      34 calls)

     Called by h_psi:
     h_psi:calbec :      0.13s CPU      0.35s WALL (      51 calls)
                                        0.35s GPU  (      51 calls)
     vloc_psi     :      0.40s CPU      0.41s WALL (      51 calls)
                                        0.41s GPU  (      51 calls)
     add_vuspsi   :      0.03s CPU      0.08s WALL (      51 calls)
                                        0.08s GPU  (      51 calls)

     General routines
     calbec       :      0.13s CPU      0.26s WALL (      72 calls)
     fft          :      3.24s CPU      4.14s WALL (     232 calls)
                                        0.04s GPU  (     216 calls)
     ffts         :      2.24s CPU      2.96s WALL (      32 calls)
                                        0.00s GPU  (      16 calls)
     fftw         :      0.11s CPU      0.41s WALL (     296 calls)
                                        0.40s GPU  (     296 calls)
     interpolate  :      5.59s CPU      7.18s WALL (      16 calls)
 
     Parallel routines
 
     PWSCF        :     44.27s CPU     55.26s WALL

 
   This run was terminated on:   8:25:46   6May2026            

=------------------------------------------------------------------------------=
   JOB DONE.
=------------------------------------------------------------------------------=
Warning: ieee_invalid is signaling
Warning: ieee_divide_by_zero is signaling
Warning: ieee_inexact is signaling
FORTRAN STOP
