--------------------------------------------------------------------------
WARNING: Open MPI tried to bind a process but failed.  This is a
warning only; your job will continue, though performance may
be degraded.

  Local host:        3253031b5b37
  Application name:  /root/qe-7.3.1/bin/pw.x
  Error message:     failed to bind memory
  Location:          ../../../../../orte/mca/rtc/hwloc/rtc_hwloc.c:447

--------------------------------------------------------------------------

     Program PWSCF v.7.3.1 starts on  6May2026 at  8:25:50 

     This program is part of the open-source Quantum ESPRESSO suite
     for quantum simulation of materials; please cite
         "P. Giannozzi et al., J. Phys.:Condens. Matter 21 395502 (2009);
         "P. Giannozzi et al., J. Phys.:Condens. Matter 29 465901 (2017);
         "P. Giannozzi et al., J. Chem. Phys. 152 154105 (2020);
          URL http://www.quantum-espresso.org", 
     in publications or presentations arising from this work. More details at
     http://www.quantum-espresso.org/quote

     Parallel version (MPI & OpenMP), running on       8 processor cores
     Number of MPI processes:                 1
     Threads/MPI process:                     8

     MPI processes distributed on     1 nodes
     88337 MiB available memory on the printing compute node when the environment starts
 
     Reading input from pristine_Hf2Te6.in

     Current dimensions of program PWSCF are:
     Max number of different atomic species (ntypx) = 10
     Max number of k-points (npk) =  40000
     Max angular momentum in pseudopotentials (lmaxx) =  4
     file Hf.UPF: wavefunction(s)  5P renormalized
     file Te.UPF: wavefunction(s)  5S 5P renormalized
 
     Subspace diagonalization in iterative solution of the eigenvalue problem:
     a serial algorithm will be used

 
     G-vector sticks info
     --------------------
     sticks:   dense  smooth     PW     G-vecs:    dense   smooth      PW
     Sum       10803    7181   1805              1272235   692337   86517
 
     Using Slab Decomposition
 


     bravais-lattice index     =            0
     lattice parameter (alat)  =      33.7579  a.u.
     unit-cell volume          =   31193.8487 (a.u.)^3
     number of atoms/cell      =           72
     number of atomic types    =            2
     number of electrons       =       540.00
     number of Kohn-Sham states=          324
     kinetic-energy cutoff     =      30.0000  Ry
     charge density cutoff     =     180.0000  Ry
     scf convergence threshold =      1.0E-07
     mixing beta               =       0.4000
     number of iterations used =            8  plain     mixing
     Exchange-correlation= SLA  PW   PBX  PBC
                           (   1   4   3   4   0   0   0)

     GPU acceleration is ACTIVE.  1 visible GPUs per MPI rank


     celldm(1)=  33.757942  celldm(2)=   0.000000  celldm(3)=   0.000000
     celldm(4)=   0.000000  celldm(5)=   0.000000  celldm(6)=   0.000000

     crystal axes: (cart. coord. in units of alat)
               a(1) = (   1.000000   0.000000   0.000000 )  
               a(2) = (   0.000000   0.661459   0.000000 )  
               a(3) = (   0.000000   0.000000   1.225852 )  

     reciprocal axes: (cart. coord. in units 2 pi/alat)
               b(1) = (  1.000000  0.000000  0.000000 )  
               b(2) = (  0.000000  1.511810  0.000000 )  
               b(3) = (  0.000000  0.000000  0.815759 )  


     PseudoPot. # 1 for Hf read from file:
     /root/qe_pseudos/Hf.UPF
     MD5 check sum: bf8a91e620b6303fe4cf956cf37905ef
     Pseudo is Projector augmented-wave + core cor, Zval = 12.0
     Generated using &quot;atomic&quot; code by A. Dal Corso  v.6.2.2
     Shape of augmentation charge: PSQ
     Using radial grid of 1271 points,  6 beta functions with: 
                l(1) =   0
                l(2) =   0
                l(3) =   1
                l(4) =   1
                l(5) =   2
                l(6) =   2
     Q(r) pseudized with 0 coefficients 


     PseudoPot. # 2 for Te read from file:
     /root/qe_pseudos/Te.UPF
     MD5 check sum: 66247bff2bd9dbf220fbb0bf5ab56e9d
     Pseudo is Projector augmented-wave + core cor, Zval =  6.0
     Generated using &quot;atomic&quot; code by A. Dal Corso  v.6.3
     Shape of augmentation charge: PSQ
     Using radial grid of 1245 points,  6 beta functions with: 
                l(1) =   0
                l(2) =   0
                l(3) =   1
                l(4) =   1
                l(5) =   2
                l(6) =   2
     Q(r) pseudized with 0 coefficients 


     atomic species   valence    mass     pseudopotential
     Hf               12.00   178.49000     Hf( 1.00)
     Te                6.00   127.60000     Te( 1.00)

     No symmetry found



   Cartesian axes

     site n.     atom                  positions (alat units)
         1        Hf     tau(   1) = (   0.7103596   0.6062691   0.5190248  )
         2        Hf     tau(   2) = (   0.8772213   0.4962432   0.7067679  )
         3        Hf     tau(   3) = (   0.7103707   0.3856060   0.5190288  )
         4        Hf     tau(   4) = (   0.8778450   0.2750567   0.7073815  )
         5        Hf     tau(   5) = (   0.7104407   0.1652073   0.5191080  )
         6        Hf     tau(   6) = (   0.8778865   0.0559545   0.7073959  )
         7        Hf     tau(   7) = (   0.3771095   0.6062965   0.5195998  )
         8        Hf     tau(   8) = (   0.5438239   0.4961908   0.7067180  )
         9        Hf     tau(   9) = (   0.3771160   0.3856019   0.5196031  )
        10        Hf     tau(  10) = (   0.5442925   0.2754359   0.7069468  )
        11        Hf     tau(  11) = (   0.3770252   0.1652090   0.5193757  )
        12        Hf     tau(  12) = (   0.5442962   0.0554841   0.7069856  )
        13        Hf     tau(  13) = (   0.0436668   0.6061278   0.5190054  )
        14        Hf     tau(  14) = (   0.2106657   0.4962201   0.7067848  )
        15        Hf     tau(  15) = (   0.2100168   0.0537083   0.7072183  )
        16        Hf     tau(  16) = (   0.2099720   0.2772563   0.7072270  )
        17        Hf     tau(  17) = (   0.0438652   0.1651947   0.5193594  )
        18        Hf     tau(  18) = (   0.0436825   0.3857942   0.5189936  )
        19        Te     tau(  19) = (   0.9649113   0.2756056   0.4238099  )
        20        Te     tau(  20) = (   0.6230848   0.6062762   0.8016488  )
        21        Te     tau(  21) = (   0.9649249   0.0551896   0.4237426  )
        22        Te     tau(  22) = (   0.1275057   0.1654185   0.7969194  )
        23        Te     tau(  23) = (   0.7100380   0.0553793   0.6415486  )
        24        Te     tau(  24) = (   0.8771774   0.1649899   0.5839903  )
        25        Te     tau(  25) = (   0.7896077   0.0551741   0.4240988  )
        26        Te     tau(  26) = (   0.7982968   0.1652967   0.8002692  )
        27        Te     tau(  27) = (   0.6314520   0.0551608   0.4240103  )
        28        Te     tau(  28) = (   0.9588567   0.1653715   0.8013262  )
        29        Te     tau(  29) = (   0.1230813   0.0552525   0.4243188  )
        30        Te     tau(  30) = (   0.2113176   0.1650680   0.5856398  )
        31        Te     tau(  31) = (   0.7100181   0.2759715   0.6415086  )
        32        Te     tau(  32) = (   0.8769648   0.3852643   0.5843751  )
        33        Te     tau(  33) = (   0.7896108   0.2756655   0.4240944  )
        34        Te     tau(  34) = (   0.7983658   0.3855580   0.8020067  )
        35        Te     tau(  35) = (   0.6314589   0.2756421   0.4239890  )
        36        Te     tau(  36) = (   0.9564948   0.3859305   0.8016174  )
        37        Te     tau(  37) = (   0.0434935   0.0550976   0.6412732  )
        38        Te     tau(  38) = (   0.7101543   0.4964333   0.6417166  )
        39        Te     tau(  39) = (   0.8769823   0.6063807   0.5844199  )
        40        Te     tau(  40) = (   0.7897242   0.4961269   0.4246276  )
        41        Te     tau(  41) = (   0.7983803   0.6064781   0.8020691  )
        42        Te     tau(  42) = (   0.6313296   0.4961115   0.4241888  )
        43        Te     tau(  43) = (   0.2980089   0.4962040   0.4250233  )
        44        Te     tau(  44) = (   0.4649266   0.6063628   0.8019715  )
        45        Te     tau(  45) = (   0.4562145   0.4961022   0.4242974  )
        46        Te     tau(  46) = (   0.5435535   0.6060924   0.5842681  )
        47        Te     tau(  47) = (   0.1312926   0.3863024   0.8024603  )
        48        Te     tau(  48) = (   0.0433571   0.4963567   0.6414873  )
        49        Te     tau(  49) = (   0.2096590   0.6061159   0.5845305  )
        50        Te     tau(  50) = (   0.1230385   0.4961186   0.4238553  )
        51        Te     tau(  51) = (   0.1312807   0.6058618   0.8024875  )
        52        Te     tau(  52) = (   0.9648703   0.4961267   0.4236766  )
        53        Te     tau(  53) = (   0.2894086   0.6061792   0.8024915  )
        54        Te     tau(  54) = (   0.1231081   0.2755362   0.4243672  )
        55        Te     tau(  55) = (   0.2096761   0.3856152   0.5844901  )
        56        Te     tau(  56) = (   0.3768243   0.0555319   0.6427005  )
        57        Te     tau(  57) = (   0.5435379   0.1651669   0.5841936  )
        58        Te     tau(  58) = (   0.2894441   0.3858550   0.8025078  )
        59        Te     tau(  59) = (   0.4561083   0.0551385   0.4241352  )
        60        Te     tau(  60) = (   0.2979546   0.0551538   0.4245441  )
        61        Te     tau(  61) = (   0.6246567   0.1653069   0.8005948  )
        62        Te     tau(  62) = (   0.0435332   0.2761144   0.6412990  )
        63        Te     tau(  63) = (   0.3769390   0.2756481   0.6426591  )
        64        Te     tau(  64) = (   0.5435203   0.3856767   0.5842199  )
        65        Te     tau(  65) = (   0.9564932   0.6062525   0.8016085  )
        66        Te     tau(  66) = (   0.4649320   0.3856705   0.8019649  )
        67        Te     tau(  67) = (   0.2979714   0.2757624   0.4245403  )
        68        Te     tau(  68) = (   0.6230904   0.3858402   0.8016466  )
        69        Te     tau(  69) = (   0.2921422   0.1653049   0.8080648  )
        70        Te     tau(  70) = (   0.3769099   0.4963928   0.6418516  )
        71        Te     tau(  71) = (   0.4672653   0.1653136   0.8033576  )
        72        Te     tau(  72) = (   0.4561255   0.2756138   0.4241713  )

     number of k points=     1  Methfessel-Paxton smearing, width (Ry)=  0.0100
                       cart. coord. in units 2pi/alat
        k(    1) = (   0.0000000   0.0000000   0.0000000), wk =   2.0000000

     Dense  grid:  1272235 G-vectors     FFT dimensions: ( 150,  96, 180)

     Smooth grid:   692337 G-vectors     FFT dimensions: ( 120,  80, 150)

     Estimated max dynamical RAM per process >       9.38 GB

     Check: negative core charge=   -0.000002

     Initial potential from superposition of free atoms

     starting charge     539.9534, renormalised to     540.0000

     negative rho (up, down):  9.164E-02 0.000E+00
     Starting wfcs are  396 randomized atomic wfcs
     Checking if some PAW data can be deallocated... 

     total cpu time spent up to now is       43.3 secs

     Self-consistent Calculation

     iteration #  1     ecut=    30.00 Ry     beta= 0.40
     Davidson diagonalization with overlap
     ethr =  1.00E-02,  avg # of iterations =  3.0

     Threshold (ethr) on eigenvalues was too large:
     Diagonalizing with lowered threshold

     Davidson diagonalization with overlap
     ethr =  3.07E-04,  avg # of iterations =  5.0

     negative rho (up, down):  8.623E-02 0.000E+00

     total cpu time spent up to now is       82.6 secs

     total energy              =  -32115.00808306 Ry
     estimated scf accuracy    <       1.82736558 Ry

     iteration #  2     ecut=    30.00 Ry     beta= 0.40
     Davidson diagonalization with overlap
     ethr =  3.38E-04,  avg # of iterations =  5.0

     negative rho (up, down):  8.202E-02 0.000E+00

     total cpu time spent up to now is      118.0 secs

     total energy              =  -32115.06659468 Ry
     estimated scf accuracy    <       1.43688206 Ry

     iteration #  3     ecut=    30.00 Ry     beta= 0.40
     Davidson diagonalization with overlap
     ethr =  2.66E-04,  avg # of iterations =  2.0

     negative rho (up, down):  7.987E-02 0.000E+00

     total cpu time spent up to now is      152.7 secs

     total energy              =  -32115.30008710 Ry
     estimated scf accuracy    <       0.37910515 Ry

     iteration #  4     ecut=    30.00 Ry     beta= 0.40
     Davidson diagonalization with overlap
     ethr =  7.02E-05,  avg # of iterations =  3.0

     negative rho (up, down):  7.856E-02 0.000E+00

     total cpu time spent up to now is      187.5 secs

     total energy              =  -32115.26348953 Ry
     estimated scf accuracy    <       1.16235278 Ry

     iteration #  5     ecut=    30.00 Ry     beta= 0.40
     Davidson diagonalization with overlap
     ethr =  7.02E-05,  avg # of iterations =  2.0

     negative rho (up, down):  7.769E-02 0.000E+00

     total cpu time spent up to now is      221.9 secs

     total energy              =  -32115.34442767 Ry
     estimated scf accuracy    <       0.21983829 Ry

     iteration #  6     ecut=    30.00 Ry     beta= 0.40
     Davidson diagonalization with overlap
     ethr =  4.07E-05,  avg # of iterations =  2.0

     negative rho (up, down):  7.717E-02 0.000E+00

     total cpu time spent up to now is      256.4 secs

     total energy              =  -32115.35938077 Ry
     estimated scf accuracy    <       0.05925389 Ry

     iteration #  7     ecut=    30.00 Ry     beta= 0.40
     Davidson diagonalization with overlap
     ethr =  1.10E-05,  avg # of iterations = 14.0

     negative rho (up, down):  7.684E-02 0.000E+00

     total cpu time spent up to now is      292.0 secs

     total energy              =  -32115.36591173 Ry
     estimated scf accuracy    <       0.01074970 Ry

     iteration #  8     ecut=    30.00 Ry     beta= 0.40
     Davidson diagonalization with overlap
     ethr =  1.99E-06,  avg # of iterations = 38.0

     negative rho (up, down):  7.664E-02 0.000E+00

     total cpu time spent up to now is      332.9 secs

     total energy              =  -32115.36329375 Ry
     estimated scf accuracy    <       0.11615073 Ry

     iteration #  9     ecut=    30.00 Ry     beta= 0.40
     Davidson diagonalization with overlap
     c_bands:  1 eigenvalues not converged
     ethr =  1.99E-06,  avg # of iterations = 20.0

     negative rho (up, down):  7.651E-02 0.000E+00

     total cpu time spent up to now is      369.8 secs

     total energy              =  -32115.36919066 Ry
     estimated scf accuracy    <       0.00352510 Ry

     iteration # 10     ecut=    30.00 Ry     beta= 0.40
     Davidson diagonalization with overlap
     ethr =  6.53E-07,  avg # of iterations =  2.0

     negative rho (up, down):  7.641E-02 0.000E+00

     total cpu time spent up to now is      404.5 secs

     total energy              =  -32115.36957057 Ry
     estimated scf accuracy    <       0.00063532 Ry

     iteration # 11     ecut=    30.00 Ry     beta= 0.40
     Davidson diagonalization with overlap
     ethr =  1.18E-07,  avg # of iterations =  7.0

     negative rho (up, down):  7.634E-02 0.000E+00

     total cpu time spent up to now is      439.8 secs

     total energy              =  -32115.36970418 Ry
     estimated scf accuracy    <       0.00041181 Ry

     iteration # 12     ecut=    30.00 Ry     beta= 0.40
     Davidson diagonalization with overlap
     ethr =  7.63E-08,  avg # of iterations =  2.0

     negative rho (up, down):  7.631E-02 0.000E+00

     total cpu time spent up to now is      474.4 secs

     total energy              =  -32115.36971511 Ry
     estimated scf accuracy    <       0.00012676 Ry

     iteration # 13     ecut=    30.00 Ry     beta= 0.40
     Davidson diagonalization with overlap
     ethr =  2.35E-08,  avg # of iterations =  7.0

     negative rho (up, down):  7.629E-02 0.000E+00

     total cpu time spent up to now is      509.6 secs

     total energy              =  -32115.36973438 Ry
     estimated scf accuracy    <       0.00004104 Ry

     iteration # 14     ecut=    30.00 Ry     beta= 0.40
     Davidson diagonalization with overlap
     ethr =  7.60E-09,  avg # of iterations =  4.0

     negative rho (up, down):  7.627E-02 0.000E+00

     total cpu time spent up to now is      544.5 secs

     total energy              =  -32115.36974107 Ry
     estimated scf accuracy    <       0.00000862 Ry

     iteration # 15     ecut=    30.00 Ry     beta= 0.40
     Davidson diagonalization with overlap
     ethr =  1.60E-09,  avg # of iterations =  6.0

     negative rho (up, down):  7.626E-02 0.000E+00

     total cpu time spent up to now is      579.7 secs

     total energy              =  -32115.36974234 Ry
     estimated scf accuracy    <       0.00000460 Ry

     iteration # 16     ecut=    30.00 Ry     beta= 0.40
     Davidson diagonalization with overlap
     ethr =  8.52E-10,  avg # of iterations =  2.0

     negative rho (up, down):  7.626E-02 0.000E+00

     total cpu time spent up to now is      614.3 secs

     total energy              =  -32115.36974217 Ry
     estimated scf accuracy    <       0.00000908 Ry

     iteration # 17     ecut=    30.00 Ry     beta= 0.40
     Davidson diagonalization with overlap
     ethr =  8.52E-10,  avg # of iterations =  2.0

     negative rho (up, down):  7.626E-02 0.000E+00

     total cpu time spent up to now is      649.0 secs

     total energy              =  -32115.36974265 Ry
     estimated scf accuracy    <       0.00000268 Ry

     iteration # 18     ecut=    30.00 Ry     beta= 0.40
     Davidson diagonalization with overlap
     ethr =  4.95E-10,  avg # of iterations =  2.0

     negative rho (up, down):  7.625E-02 0.000E+00

     total cpu time spent up to now is      683.8 secs

     total energy              =  -32115.36974265 Ry
     estimated scf accuracy    <       0.00000489 Ry

     iteration # 19     ecut=    30.00 Ry     beta= 0.40
     Davidson diagonalization with overlap
     ethr =  4.95E-10,  avg # of iterations =  1.0

     negative rho (up, down):  7.625E-02 0.000E+00

     total cpu time spent up to now is      717.9 secs

     total energy              =  -32115.36974293 Ry
     estimated scf accuracy    <       0.00000036 Ry

     iteration # 20     ecut=    30.00 Ry     beta= 0.40
     Davidson diagonalization with overlap
     ethr =  6.60E-11,  avg # of iterations =  7.0

     negative rho (up, down):  7.625E-02 0.000E+00

     total cpu time spent up to now is      752.7 secs

     End of self-consistent calculation

          k = 0.0000 0.0000 0.0000 ( 86517 PWs)   bands (ev):

   -61.6287 -61.6275 -61.6079 -61.6062 -61.6052 -61.6047 -61.6037 -61.6026
   -61.6015 -61.5994 -61.5988 -61.5981 -61.5972 -61.5965 -61.5940 -61.5934
   -61.5926 -61.5921 -30.1903 -30.1854 -30.1797 -30.1760 -30.1733 -30.1727
   -30.1712 -30.1704 -30.1697 -30.1691 -30.1671 -30.1660 -30.1651 -30.1641
   -30.1629 -30.1624 -30.1603 -30.1600 -30.1504 -30.1438 -30.1377 -30.1366
   -30.1347 -30.1322 -30.1316 -30.1302 -30.1299 -30.1290 -30.1274 -30.1260
   -30.1234 -30.1214 -30.1061 -30.1024 -30.1021 -30.1010 -30.1007 -30.0991
   -30.0988 -30.0978 -30.0975 -30.0956 -30.0946 -30.0944 -30.0921 -30.0921
   -30.0906 -30.0904 -30.0903 -30.0896 -30.0892 -30.0884 -30.0870 -30.0847
   -11.7979 -11.5989 -11.4231 -11.3979 -11.2817 -11.2810 -11.2561 -11.2420
   -11.2329 -11.1946 -10.9401 -10.9251 -10.9206 -10.9045 -10.8906 -10.8868
   -10.8822 -10.7304 -10.3095 -10.1085 -10.0940  -9.9579  -9.9432  -9.9328
    -9.9220  -9.7612  -9.7481  -9.7400  -9.7311  -9.5662  -9.5389  -9.5055
    -9.4957  -9.4867  -9.4849  -9.2804  -9.2466  -9.2465  -9.2389  -9.1566
    -9.1472  -9.1137  -9.1136  -9.1067  -9.1042  -9.0985  -9.0897  -9.0882
    -8.6130  -8.6060  -8.3230  -8.3151  -8.3130  -8.3096  -4.7742  -4.4947
    -4.3556  -4.3451  -4.2849  -4.2750  -3.8293  -3.7976  -3.7908  -3.7838
    -3.7817  -3.7792  -3.7688  -3.6613  -3.6592  -3.3322  -3.1703  -3.1701
    -3.1614  -3.1578  -3.1428  -3.1355  -3.1166  -3.1099  -2.9522  -2.9431
    -2.8941  -2.8856  -2.8697  -2.8676  -2.8020  -2.7779  -2.7625  -2.7510
    -2.7262  -2.7235  -2.5316  -2.5277  -2.4468  -2.4147  -2.4039  -2.3933
    -2.3701  -2.3591  -2.3450  -2.2840  -2.2764  -2.2607  -2.2589  -2.2489
    -2.2159  -2.1337  -2.1299  -2.1136  -2.1012  -1.9493  -1.9416  -1.9346
    -1.9310  -1.9100  -1.8934  -1.7029  -1.6908  -1.6862  -1.6752  -1.6728
    -1.6630  -1.5950  -1.5926  -1.5755  -1.5689  -1.4750  -1.4708  -1.4649
    -1.4146  -1.2217  -1.1900  -1.1344  -1.1073  -1.1069  -1.0433  -1.0219
    -0.9744  -0.9683  -0.9655  -0.9317  -0.8457  -0.8381  -0.8296  -0.8287
    -0.7659  -0.7507  -0.6501  -0.6461  -0.5585  -0.5514  -0.5463  -0.5336
    -0.5235  -0.4464  -0.4459  -0.4444  -0.4076  -0.3951  -0.3854  -0.3794
    -0.3757  -0.3747  -0.3703  -0.3664  -0.3656  -0.3573  -0.3514  -0.3503
    -0.3460  -0.2043  -0.1612  -0.1598  -0.1509  -0.1382  -0.0557   0.0068
     0.0189   0.0222   0.0260   0.0283   0.0354   0.0540   0.0565   0.1176
     0.1267   0.1493   0.1538   0.2090   0.3455   0.3719   0.6628   0.7345
     0.7906   0.7920   1.1153   1.1306   1.2507   1.3217   1.4694   1.5488
     1.6048   1.6539   1.6686   1.7098   1.7502   1.7704   1.8060   1.8096
     1.8256   2.0463   2.0821   2.1278   2.1335   2.1506   2.2291   2.2417
     2.9208   2.9247   2.9335   2.9346   3.0224   3.0235   3.0733   3.0745
     3.0771   3.0875   3.1734   3.1822   3.1918   3.1981   3.2266   3.2335
     3.2479   3.2488   3.2540   3.4539   3.4613   3.4762   3.4796   3.4891
     3.4901   3.4920   3.4961   3.5198   3.5277   3.6752   3.6755   3.7318
     3.7320   3.7465   3.7472   3.9637

     the Fermi energy is     1.4007 ev

!    total energy              =  -32115.36974290 Ry
     total all-electron energy =  -1276645.034118 Ry
     estimated scf accuracy    <       0.00000008 Ry
     smearing contrib. (-TS)   =       0.00349456 Ry
     internal energy E=F+TS    =  -32115.37323746 Ry

     The total energy is F=E-TS. E is the sum of the following terms:
     one-electron contribution =  -12982.16034591 Ry
     hartree contribution      =    6598.70976019 Ry
     xc contribution           =   -1640.98938051 Ry
     ewald contribution        =    4321.07693125 Ry
     one-center paw contrib.   =  -28412.01020247 Ry

     convergence has been achieved in  20 iterations

     negative rho (up, down):  7.625E-02 0.000E+00

     Forces acting on atoms (cartesian axes, Ry/au):

     atom    1 type  1   force =     0.00027734   -0.00080048    0.00185930
     atom    2 type  1   force =    -0.00050430    0.00055993   -0.00226868
     atom    3 type  1   force =     0.00022015   -0.00005282    0.00180606
     atom    4 type  1   force =    -0.00023595    0.00489274   -0.00647804
     atom    5 type  1   force =    -0.00026995   -0.00052320    0.00085865
     atom    6 type  1   force =    -0.00037014   -0.00387064   -0.00632378
     atom    7 type  1   force =     0.00066420    0.00054183    0.00172177
     atom    8 type  1   force =    -0.00022483    0.00076434   -0.00041901
     atom    9 type  1   force =     0.00064808   -0.00155845    0.00186752
     atom   10 type  1   force =    -0.00098473    0.00318648   -0.00229725
     atom   11 type  1   force =    -0.00001112   -0.00061279    0.00322601
     atom   12 type  1   force =    -0.00108198   -0.00161998   -0.00247911
     atom   13 type  1   force =    -0.00037216   -0.00096771    0.00065564
     atom   14 type  1   force =    -0.00085034    0.00061479    0.00095468
     atom   15 type  1   force =     0.00543640    0.01209870    0.00372832
     atom   16 type  1   force =     0.00556495   -0.01062751    0.00308723
     atom   17 type  1   force =     0.00057574   -0.00050698    0.00021944
     atom   18 type  1   force =    -0.00041136   -0.00026306    0.00077475
     atom   19 type  2   force =     0.00087339    0.00008556   -0.00007155
     atom   20 type  2   force =    -0.00065977   -0.00034099    0.00046332
     atom   21 type  2   force =     0.00071117    0.00019703   -0.00004970
     atom   22 type  2   force =     0.03184938   -0.00035828    0.00241353
     atom   23 type  2   force =     0.00149215    0.00102123   -0.00102674
     atom   24 type  2   force =     0.00034358   -0.00071354    0.00240009
     atom   25 type  2   force =    -0.00073005    0.00017075   -0.00007912
     atom   26 type  2   force =     0.00165359   -0.00006508    0.00389501
     atom   27 type  2   force =     0.00017357    0.00029471   -0.00039896
     atom   28 type  2   force =    -0.01171448   -0.00016696    0.00490725
     atom   29 type  2   force =    -0.00129019    0.00037116    0.00018089
     atom   30 type  2   force =    -0.00148505   -0.00090866   -0.00035985
     atom   31 type  2   force =     0.00156252    0.00087609   -0.00080087
     atom   32 type  2   force =     0.00006420   -0.00096044    0.00180113
     atom   33 type  2   force =    -0.00068838   -0.00000427   -0.00004549
     atom   34 type  2   force =     0.00073019   -0.00006068    0.00027381
     atom   35 type  2   force =     0.00017318   -0.00005587   -0.00038103
     atom   36 type  2   force =    -0.00120964   -0.00008772    0.00074906
     atom   37 type  2   force =     0.00020599    0.00029584   -0.00099138
     atom   38 type  2   force =     0.00054094    0.00085120   -0.00158266
     atom   39 type  2   force =    -0.00000725   -0.00128113    0.00151224
     atom   40 type  2   force =    -0.00127643    0.00018948   -0.00058922
     atom   41 type  2   force =     0.00072683   -0.00013652    0.00025137
     atom   42 type  2   force =     0.00122706    0.00018858   -0.00055692
     atom   43 type  2   force =     0.00053536    0.00003506   -0.00056305
     atom   44 type  2   force =     0.00086572   -0.00010272   -0.00023021
     atom   45 type  2   force =    -0.00147745    0.00017251    0.00008937
     atom   46 type  2   force =     0.00017137   -0.00025594    0.00129265
     atom   47 type  2   force =     0.00068401    0.00031056    0.00059107
     atom   48 type  2   force =     0.00054558    0.00101581   -0.00064871
     atom   49 type  2   force =     0.00121725   -0.00176619    0.00015929
     atom   50 type  2   force =    -0.00090164    0.00017615   -0.00033651
     atom   51 type  2   force =     0.00069618   -0.00051895    0.00052584
     atom   52 type  2   force =    -0.00002912    0.00019323   -0.00000772
     atom   53 type  2   force =    -0.00046403   -0.00168632   -0.00073172
     atom   54 type  2   force =    -0.00144727   -0.00017735    0.00014202
     atom   55 type  2   force =     0.00126726   -0.00063387    0.00043159
     atom   56 type  2   force =     0.00092803    0.00073605   -0.00280559
     atom   57 type  2   force =     0.00033047   -0.00141841    0.00118147
     atom   58 type  2   force =    -0.00066061    0.00136204   -0.00080252
     atom   59 type  2   force =    -0.00080208    0.00004446    0.00034944
     atom   60 type  2   force =     0.00093655    0.00023135   -0.00013250
     atom   61 type  2   force =     0.00660173   -0.00009252    0.00276545
     atom   62 type  2   force =     0.00004283    0.00187610   -0.00113661
     atom   63 type  2   force =     0.00053407    0.00188352   -0.00273619
     atom   64 type  2   force =     0.00030029   -0.00220894    0.00152177
     atom   65 type  2   force =    -0.00112944   -0.00027354    0.00079015
     atom   66 type  2   force =     0.00085860   -0.00014545   -0.00029051
     atom   67 type  2   force =     0.00091104   -0.00010406   -0.00012607
     atom   68 type  2   force =    -0.00068024   -0.00005273    0.00043633
     atom   69 type  2   force =    -0.02715953   -0.00034583   -0.01062010
     atom   70 type  2   force =     0.00032984    0.00095143   -0.00041602
     atom   71 type  2   force =    -0.01353701   -0.00012951   -0.00138667
     atom   72 type  2   force =    -0.00080428    0.00026742    0.00028651

     Total force =     0.054139     Total SCF correction =     0.000817


     Computing stress (Cartesian axis) and pressure


     negative rho (up, down):  7.625E-02 0.000E+00
          total   stress  (Ry/bohr**3)                   (kbar)     P=       -8.28
  -0.00013996   0.00000002  -0.00000144          -20.59        0.00       -0.21
   0.00000002   0.00002031   0.00000052            0.00        2.99        0.08
  -0.00000144   0.00000052  -0.00004923           -0.21        0.08       -7.24


     Writing all to output data dir /root/qe_scratch/pristine_Hf2Te6.save/ :
     XML data file, charge density, pseudopotentials, collected wavefunctions
 
     init_run     :     33.44s CPU     42.56s WALL (       1 calls)
     electrons    :    589.29s CPU    709.52s WALL (       1 calls)
     forces       :      1.89s CPU      1.95s WALL (       1 calls)
     stress       :      5.90s CPU      5.96s WALL (       1 calls)

     Called by init_run:
     wfcinit      :      1.30s CPU      1.52s WALL (       1 calls)
     potinit      :     30.76s CPU     38.68s WALL (       1 calls)
     hinit0       :      0.85s CPU      0.96s WALL (       1 calls)

     Called by electrons:
     c_bands      :     70.54s CPU     70.68s WALL (      21 calls)
     sum_band     :     10.71s CPU     10.73s WALL (      21 calls)
     v_of_rho     :      1.98s CPU      2.55s WALL (      21 calls)
     newd         :      2.28s CPU      2.37s WALL (      21 calls)
                                        2.37s GPU  (      21 calls)
     PAW_pot      :    521.82s CPU    646.59s WALL (      21 calls)
     mix_rho      :      2.03s CPU      2.14s WALL (      21 calls)

     Called by c_bands:
     init_us_2    :      0.22s CPU      0.22s WALL (      43 calls)
     cegterg      :     69.53s CPU     69.61s WALL (      22 calls)

     Called by *egterg:
     cdiaghg      :      3.63s CPU      3.68s WALL (     157 calls)
                                        3.68s GPU  (     157 calls)
     h_psi        :     33.12s CPU     33.34s WALL (     159 calls)
                                       33.32s GPU  (     159 calls)
     s_psi        :      0.54s CPU      0.54s WALL (     159 calls)
     g_psi        :      0.00s CPU      0.08s WALL (     136 calls)
                                        0.08s GPU  (     136 calls)

     Called by h_psi:
     h_psi:calbec :      0.09s CPU     15.18s WALL (     159 calls)
                                       15.18s GPU  (     159 calls)
     vloc_psi     :      7.21s CPU      7.24s WALL (     159 calls)
                                        7.24s GPU  (     159 calls)
     add_vuspsi   :      0.51s CPU     10.85s WALL (     159 calls)
                                       10.85s GPU  (     159 calls)

     General routines
     calbec       :      0.09s CPU      0.26s WALL (     185 calls)
     fft          :      5.76s CPU      7.23s WALL (     297 calls)
                                        0.19s GPU  (     276 calls)
     ffts         :      3.55s CPU      4.57s WALL (      42 calls)
                                        0.01s GPU  (      21 calls)
     fftw         :      0.11s CPU      7.27s WALL (    2843 calls)
                                        7.26s GPU  (    2843 calls)
     interpolate  :      9.52s CPU     11.97s WALL (      21 calls)
 
     Parallel routines
 
     PWSCF        :  10m31.47s CPU  12m41.56s WALL

 
   This run was terminated on:   8:38:31   6May2026            

=------------------------------------------------------------------------------=
   JOB DONE.
=------------------------------------------------------------------------------=
Warning: ieee_invalid is signaling
Warning: ieee_divide_by_zero is signaling
Warning: ieee_inexact is signaling
FORTRAN STOP
