--------------------------------------------------------------------------
WARNING: Open MPI tried to bind a process but failed.  This is a
warning only; your job will continue, though performance may
be degraded.

  Local host:        3253031b5b37
  Application name:  /root/qe-7.3.1/bin/pw.x
  Error message:     failed to bind memory
  Location:          ../../../../../orte/mca/rtc/hwloc/rtc_hwloc.c:447

--------------------------------------------------------------------------

     Program PWSCF v.7.3.1 starts on  6May2026 at  9:28:45 

     This program is part of the open-source Quantum ESPRESSO suite
     for quantum simulation of materials; please cite
         "P. Giannozzi et al., J. Phys.:Condens. Matter 21 395502 (2009);
         "P. Giannozzi et al., J. Phys.:Condens. Matter 29 465901 (2017);
         "P. Giannozzi et al., J. Chem. Phys. 152 154105 (2020);
          URL http://www.quantum-espresso.org", 
     in publications or presentations arising from this work. More details at
     http://www.quantum-espresso.org/quote

     Parallel version (MPI & OpenMP), running on       8 processor cores
     Number of MPI processes:                 1
     Threads/MPI process:                     8

     MPI processes distributed on     1 nodes
     86169 MiB available memory on the printing compute node when the environment starts
 
     Reading input from pristine_SnSe2.in

     Current dimensions of program PWSCF are:
     Max number of different atomic species (ntypx) = 10
     Max number of k-points (npk) =  40000
     Max angular momentum in pseudopotentials (lmaxx) =  4
     file Sn.UPF: wavefunction(s)  5S 4D renormalized
 
     Subspace diagonalization in iterative solution of the eigenvalue problem:
     a serial algorithm will be used

 
     G-vector sticks info
     --------------------
     sticks:   dense  smooth     PW     G-vecs:    dense   smooth      PW
     Sum        5947    3985   1003               582369   316931   39641
 
     Using Slab Decomposition
 


     bravais-lattice index     =            0
     lattice parameter (alat)  =      21.9105  a.u.
     unit-cell volume          =   14285.2741 (a.u.)^3
     number of atoms/cell      =           27
     number of atomic types    =            2
     number of electrons       =       234.00
     number of Kohn-Sham states=          140
     kinetic-energy cutoff     =      30.0000  Ry
     charge density cutoff     =     180.0000  Ry
     scf convergence threshold =      1.0E-07
     mixing beta               =       0.4000
     number of iterations used =            8  plain     mixing
     Exchange-correlation= PBE
                           (   1   4   3   4   0   0   0)

     GPU acceleration is ACTIVE.  1 visible GPUs per MPI rank


     celldm(1)=  21.910474  celldm(2)=   0.000000  celldm(3)=   0.000000
     celldm(4)=   0.000000  celldm(5)=   0.000000  celldm(6)=   0.000000

     crystal axes: (cart. coord. in units of alat)
               a(1) = (   1.000000   0.000000   0.000000 )  
               a(2) = (  -0.500000   0.866025   0.000000 )  
               a(3) = (   0.000000   0.000000   1.568204 )  

     reciprocal axes: (cart. coord. in units 2 pi/alat)
               b(1) = (  1.000000  0.577350 -0.000000 )  
               b(2) = (  0.000000  1.154701  0.000000 )  
               b(3) = (  0.000000 -0.000000  0.637672 )  


     PseudoPot. # 1 for Se read from file:
     /root/qe_pseudos/Se.UPF
     MD5 check sum: 8e2a6847b5cb9faee9497ebb573e71ea
     Pseudo is Ultrasoft + core correction, Zval =  6.0
     Generated using &quot;atomic&quot; code by A. Dal Corso  v.6.3
     Using radial grid of 1211 points,  4 beta functions with: 
                l(1) =   0
                l(2) =   0
                l(3) =   1
                l(4) =   1
     Q(r) pseudized with 0 coefficients 


     PseudoPot. # 2 for Sn read from file:
     /root/qe_pseudos/Sn.UPF
     MD5 check sum: 72e22d5a9e1ec4fde6a02e1f963898e9
     Pseudo is Ultrasoft + core correction, Zval = 14.0
     Generated using &quot;atomic&quot; code by A. Dal Corso  v.6.3
     Using radial grid of 1243 points,  6 beta functions with: 
                l(1) =   0
                l(2) =   0
                l(3) =   1
                l(4) =   1
                l(5) =   2
                l(6) =   2
     Q(r) pseudized with 0 coefficients 


     atomic species   valence    mass     pseudopotential
     Se                6.00    78.97100     Se( 1.00)
     Sn               14.00   118.71000     Sn( 1.00)

     No symmetry found



   Cartesian axes

     site n.     atom                  positions (alat units)
         1        Se     tau(   1) = (   0.5099326   0.6885592   0.9104788  )
         2        Se     tau(   2) = (   0.4898640   0.4745856   0.6427536  )
         3        Se     tau(   3) = (   0.6665957   0.3938527   0.9219440  )
         4        Se     tau(   4) = (   0.6665313   0.2094204   0.6480732  )
         5        Se     tau(   5) = (   0.8294753   0.1108391   0.9377853  )
         6        Se     tau(   6) = (   0.0032723   0.7548749   0.6302271  )
         7        Se     tau(   7) = (   0.1666472   0.6566241   0.9201679  )
         8        Se     tau(   8) = (   0.1666707   0.4723055   0.6462885  )
         9        Se     tau(   9) = (   0.3297237   0.7552473   0.6303334  )
        10        Se     tau(  10) = (   0.3243478   0.1776522   0.6577429  )
        11        Se     tau(  11) = (   0.3432784   0.3919786   0.9255989  )
        12        Se     tau(  12) = (  -0.3332208   0.7439340   0.6188349  )
        13        Se     tau(  13) = (  -0.1752900   0.6880943   0.9104417  )
        14        Se     tau(  14) = (  -0.1570554   0.4738319   0.6426758  )
        15        Se     tau(  15) = (  -0.0100526   0.3913281   0.9255674  )
        16        Se     tau(  16) = (   0.0095397   0.1779990   0.6575743  )
        17        Se     tau(  17) = (   0.1666885   0.1220195   0.9494840  )
        18        Se     tau(  18) = (   0.5034814   0.1111489   0.9379147  )
        19        Sn     tau(  19) = (   0.1666179   0.2951468   0.7975263  )
        20        Sn     tau(  20) = (   0.3934542  -0.0000173   0.7842869  )
        21        Sn     tau(  21) = (   0.0031661   0.5730428   0.7814891  )
        22        Sn     tau(  22) = (  -0.3332989   0.5708250   0.7706895  )
        23        Sn     tau(  23) = (   0.6666681  -0.0001011   0.7833045  )
        24        Sn     tau(  24) = (   0.5032132   0.2929114   0.7868660  )
        25        Sn     tau(  25) = (  -0.1700409   0.2926667   0.7870935  )
        26        Sn     tau(  26) = (   0.3299094   0.5732941   0.7814498  )
        27        Sn     tau(  27) = (  -0.0601246   0.0001877   0.7841036  )

     number of k points=     1  Methfessel-Paxton smearing, width (Ry)=  0.0100
                       cart. coord. in units 2pi/alat
        k(    1) = (   0.0000000   0.0000000   0.0000000), wk =   2.0000000

     Dense  grid:   582369 G-vectors     FFT dimensions: (  96,  96, 150)

     Smooth grid:   316931 G-vectors     FFT dimensions: (  80,  80, 120)

     Estimated max dynamical RAM per process >       2.68 GB

     Check: negative core charge=   -0.000002

     Initial potential from superposition of free atoms

     starting charge     233.9862, renormalised to     234.0000

     negative rho (up, down):  2.699E-02 0.000E+00
     Starting wfcs are  153 randomized atomic wfcs

     total cpu time spent up to now is        8.1 secs

     Self-consistent Calculation

     iteration #  1     ecut=    30.00 Ry     beta= 0.40
     Davidson diagonalization with overlap
     ethr =  1.00E-02,  avg # of iterations =  3.0

     Threshold (ethr) on eigenvalues was too large:
     Diagonalizing with lowered threshold

     Davidson diagonalization with overlap
     ethr =  8.27E-04,  avg # of iterations =  2.0

     negative rho (up, down):  2.663E-02 0.000E+00

     total cpu time spent up to now is        9.3 secs

     total energy              =   -1835.75543324 Ry
     estimated scf accuracy    <       1.89631096 Ry

     iteration #  2     ecut=    30.00 Ry     beta= 0.40
     Davidson diagonalization with overlap
     ethr =  8.10E-04,  avg # of iterations =  4.0

     negative rho (up, down):  2.698E-02 0.000E+00

     total cpu time spent up to now is       10.4 secs

     total energy              =   -1835.18365719 Ry
     estimated scf accuracy    <      10.39343146 Ry

     iteration #  3     ecut=    30.00 Ry     beta= 0.40
     Davidson diagonalization with overlap
     ethr =  8.10E-04,  avg # of iterations =  2.0

     negative rho (up, down):  2.690E-02 0.000E+00

     total cpu time spent up to now is       11.3 secs

     total energy              =   -1836.26334343 Ry
     estimated scf accuracy    <       0.92556292 Ry

     iteration #  4     ecut=    30.00 Ry     beta= 0.40
     Davidson diagonalization with overlap
     ethr =  3.96E-04,  avg # of iterations =  2.0

     negative rho (up, down):  2.675E-02 0.000E+00

     total cpu time spent up to now is       12.2 secs

     total energy              =   -1836.28123801 Ry
     estimated scf accuracy    <       0.33431216 Ry

     iteration #  5     ecut=    30.00 Ry     beta= 0.40
     Davidson diagonalization with overlap
     ethr =  1.43E-04,  avg # of iterations =  2.0

     negative rho (up, down):  2.668E-02 0.000E+00

     total cpu time spent up to now is       13.1 secs

     total energy              =   -1836.29761734 Ry
     estimated scf accuracy    <       0.10782900 Ry

     iteration #  6     ecut=    30.00 Ry     beta= 0.40
     Davidson diagonalization with overlap
     ethr =  4.61E-05,  avg # of iterations = 11.0

     negative rho (up, down):  2.669E-02 0.000E+00

     total cpu time spent up to now is       14.2 secs

     total energy              =   -1836.29132132 Ry
     estimated scf accuracy    <       0.28893810 Ry

     iteration #  7     ecut=    30.00 Ry     beta= 0.40
     Davidson diagonalization with overlap
     ethr =  4.61E-05,  avg # of iterations =  2.0

     negative rho (up, down):  2.651E-02 0.000E+00

     total cpu time spent up to now is       15.1 secs

     total energy              =   -1836.30371299 Ry
     estimated scf accuracy    <       0.29558694 Ry

     iteration #  8     ecut=    30.00 Ry     beta= 0.40
     Davidson diagonalization with overlap
     ethr =  4.61E-05,  avg # of iterations =  1.0

     negative rho (up, down):  2.621E-02 0.000E+00

     total cpu time spent up to now is       16.0 secs

     total energy              =   -1836.30856831 Ry
     estimated scf accuracy    <       0.00850619 Ry

     iteration #  9     ecut=    30.00 Ry     beta= 0.40
     Davidson diagonalization with overlap
     ethr =  3.64E-06,  avg # of iterations =  8.0

     negative rho (up, down):  2.615E-02 0.000E+00

     total cpu time spent up to now is       17.0 secs

     total energy              =   -1836.30922025 Ry
     estimated scf accuracy    <       0.00342720 Ry

     iteration # 10     ecut=    30.00 Ry     beta= 0.40
     Davidson diagonalization with overlap
     ethr =  1.46E-06,  avg # of iterations =  5.0

     negative rho (up, down):  2.615E-02 0.000E+00

     total cpu time spent up to now is       18.1 secs

     total energy              =   -1836.30934781 Ry
     estimated scf accuracy    <       0.00325290 Ry

     iteration # 11     ecut=    30.00 Ry     beta= 0.40
     Davidson diagonalization with overlap
     ethr =  1.39E-06,  avg # of iterations =  1.0

     negative rho (up, down):  2.615E-02 0.000E+00

     total cpu time spent up to now is       19.0 secs

     total energy              =   -1836.30948216 Ry
     estimated scf accuracy    <       0.00125442 Ry

     iteration # 12     ecut=    30.00 Ry     beta= 0.40
     Davidson diagonalization with overlap
     ethr =  5.36E-07,  avg # of iterations =  1.0

     negative rho (up, down):  2.614E-02 0.000E+00

     total cpu time spent up to now is       19.8 secs

     total energy              =   -1836.30952464 Ry
     estimated scf accuracy    <       0.00004243 Ry

     iteration # 13     ecut=    30.00 Ry     beta= 0.40
     Davidson diagonalization with overlap
     ethr =  1.81E-08,  avg # of iterations =  2.0

     negative rho (up, down):  2.614E-02 0.000E+00

     total cpu time spent up to now is       20.7 secs

     total energy              =   -1836.30952836 Ry
     estimated scf accuracy    <       0.00001344 Ry

     iteration # 14     ecut=    30.00 Ry     beta= 0.40
     Davidson diagonalization with overlap
     ethr =  5.74E-09,  avg # of iterations =  2.0

     negative rho (up, down):  2.614E-02 0.000E+00

     total cpu time spent up to now is       21.6 secs

     total energy              =   -1836.30952933 Ry
     estimated scf accuracy    <       0.00000988 Ry

     iteration # 15     ecut=    30.00 Ry     beta= 0.40
     Davidson diagonalization with overlap
     ethr =  4.22E-09,  avg # of iterations =  1.0

     negative rho (up, down):  2.613E-02 0.000E+00

     total cpu time spent up to now is       22.5 secs

     total energy              =   -1836.30952967 Ry
     estimated scf accuracy    <       0.00001975 Ry

     iteration # 16     ecut=    30.00 Ry     beta= 0.40
     Davidson diagonalization with overlap
     ethr =  4.22E-09,  avg # of iterations =  1.0

     negative rho (up, down):  2.613E-02 0.000E+00

     total cpu time spent up to now is       23.4 secs

     total energy              =   -1836.30953053 Ry
     estimated scf accuracy    <       0.00000100 Ry

     iteration # 17     ecut=    30.00 Ry     beta= 0.40
     Davidson diagonalization with overlap
     ethr =  4.27E-10,  avg # of iterations =  1.0

     negative rho (up, down):  2.613E-02 0.000E+00

     total cpu time spent up to now is       24.2 secs

     total energy              =   -1836.30953058 Ry
     estimated scf accuracy    <       0.00000021 Ry

     iteration # 18     ecut=    30.00 Ry     beta= 0.40
     Davidson diagonalization with overlap
     ethr =  8.89E-11,  avg # of iterations =  2.0

     negative rho (up, down):  2.613E-02 0.000E+00

     total cpu time spent up to now is       25.2 secs

     total energy              =   -1836.30953058 Ry
     estimated scf accuracy    <       0.00000115 Ry

     iteration # 19     ecut=    30.00 Ry     beta= 0.40
     Davidson diagonalization with overlap
     ethr =  8.89E-11,  avg # of iterations =  1.0

     negative rho (up, down):  2.613E-02 0.000E+00

     total cpu time spent up to now is       26.0 secs

     total energy              =   -1836.30953060 Ry
     estimated scf accuracy    <       0.00000028 Ry

     iteration # 20     ecut=    30.00 Ry     beta= 0.40
     Davidson diagonalization with overlap
     ethr =  8.89E-11,  avg # of iterations =  1.0

     negative rho (up, down):  2.613E-02 0.000E+00

     total cpu time spent up to now is       26.8 secs

     End of self-consistent calculation

          k = 0.0000 0.0000 0.0000 ( 39641 PWs)   bands (ev):

   -22.9729 -22.9687 -22.9626 -22.9272 -22.9267 -22.9225 -22.9061 -22.8913
   -22.8657 -22.8498 -22.8416 -22.8327 -22.8250 -22.8207 -22.8195 -22.8015
   -22.7989 -22.7977 -22.7867 -22.7829 -22.7779 -22.7756 -22.7741 -22.7701
   -22.7479 -22.7459 -22.7438 -22.7282 -22.7271 -22.7142 -22.6104 -22.6013
   -22.5801 -22.5693 -22.5297 -22.5248 -22.5196 -22.5108 -22.4985 -22.4919
   -22.3079 -22.3037 -22.2637 -22.2566 -22.2168 -15.2950 -14.6050 -14.5768
   -14.4689 -14.3845 -14.2374 -14.0384 -13.9116 -13.7987 -13.6587 -13.6442
   -13.5591 -13.5054 -13.4369 -13.4352 -13.4209 -12.4529 -12.4489  -9.0115
    -8.7828  -8.6190  -8.3374  -8.3237  -8.3008  -8.1247  -7.9424  -7.6506
    -5.8153  -5.7631  -5.6551  -5.6382  -5.5724  -5.5644  -5.3586  -5.2362
    -5.0978  -4.8499  -4.8248  -4.6919  -4.6197  -4.2058  -4.1761  -4.0472
    -3.9654  -3.8912  -3.8686  -3.8536  -3.7424  -3.5637  -3.2748  -3.2169
    -3.0958  -3.0703  -2.9024  -2.8742  -2.7189  -2.7047  -2.6696  -2.5331
    -2.5249  -2.5007  -2.2263  -2.1948  -2.1420  -2.1107  -2.0261  -1.9866
    -1.9645  -1.4132  -1.3679  -1.3570  -1.3475  -1.3431  -0.6696  -0.6326
    -0.6077  -0.4353  -0.4024  -0.3716  -0.0944   0.0091   0.9835   1.0900
     1.5591   2.0173   2.1997   2.2852   2.3950   2.6867   2.7554   2.7730
     2.7839   2.7995   2.9265   3.2709

     the Fermi energy is    -1.3101 ev

!    total energy              =   -1836.30953061 Ry
     estimated scf accuracy    <          9.0E-09 Ry
     smearing contrib. (-TS)   =      -0.00774491 Ry
     internal energy E=F+TS    =   -1836.30178569 Ry

     The total energy is F=E-TS. E is the sum of the following terms:
     one-electron contribution =   -6082.13042663 Ry
     hartree contribution      =    3101.43499508 Ry
     xc contribution           =    -547.77781256 Ry
     ewald contribution        =    1692.17145842 Ry

     convergence has been achieved in  20 iterations

     negative rho (up, down):  2.613E-02 0.000E+00

     Forces acting on atoms (cartesian axes, Ry/au):

     atom    1 type  1   force =    -0.02758986    0.00469022   -0.01123653
     atom    2 type  1   force =     0.00169444   -0.00448444    0.00365563
     atom    3 type  1   force =    -0.00006170    0.00932237   -0.00383135
     atom    4 type  1   force =     0.00021299   -0.00869984    0.00102509
     atom    5 type  1   force =    -0.00808940   -0.00028231    0.00418711
     atom    6 type  1   force =     0.00799326    0.00014447   -0.00375401
     atom    7 type  1   force =    -0.00001757    0.00896728   -0.00146401
     atom    8 type  1   force =    -0.00015468   -0.00940565    0.00423091
     atom    9 type  1   force =    -0.00789304    0.00012958   -0.00420427
     atom   10 type  1   force =     0.02646621   -0.00401856    0.01109467
     atom   11 type  1   force =    -0.00162814    0.00407563   -0.00372785
     atom   12 type  1   force =     0.00021709   -0.01589879    0.01210187
     atom   13 type  1   force =     0.02635819    0.00396372   -0.01066225
     atom   14 type  1   force =    -0.00102708   -0.00395613    0.00397036
     atom   15 type  1   force =     0.00178767    0.00486221   -0.00349630
     atom   16 type  1   force =    -0.02725983   -0.00507944    0.01145491
     atom   17 type  1   force =     0.00013880    0.01585499   -0.01234393
     atom   18 type  1   force =     0.00828271   -0.00019727    0.00385524
     atom   19 type  2   force =     0.00039285   -0.04918383    0.02831031
     atom   20 type  2   force =    -0.09654602    0.00020389   -0.00035097
     atom   21 type  2   force =    -0.02012220    0.00041817    0.00425460
     atom   22 type  2   force =     0.00003161    0.04909910   -0.02854973
     atom   23 type  2   force =    -0.00076979   -0.00004065    0.00058433
     atom   24 type  2   force =    -0.02028341   -0.00056036   -0.00451626
     atom   25 type  2   force =     0.01972216   -0.00019530   -0.00528330
     atom   26 type  2   force =     0.02021332    0.00026766    0.00473627
     atom   27 type  2   force =     0.09793143    0.00000328   -0.00004055

     Total force =     0.179365     Total SCF correction =     0.000187


     Computing stress (Cartesian axis) and pressure


     negative rho (up, down):  2.613E-02 0.000E+00
          total   stress  (Ry/bohr**3)                   (kbar)     P=     -343.69
  -0.00229232  -0.00000011  -0.00000023         -337.21       -0.02       -0.03
  -0.00000011  -0.00233001   0.00002107           -0.02     -342.76        3.10
  -0.00000023   0.00002107  -0.00238672           -0.03        3.10     -351.10


     Writing all to output data dir /root/qe_scratch/pristine_SnSe2.save/ :
     XML data file, charge density, pseudopotentials, collected wavefunctions
 
     init_run     :      5.78s CPU      7.59s WALL (       1 calls)
     electrons    :     17.30s CPU     18.80s WALL (       1 calls)
     forces       :      1.00s CPU      1.03s WALL (       1 calls)
     stress       :      0.60s CPU      0.62s WALL (       1 calls)

     Called by init_run:
     wfcinit      :      0.19s CPU      0.40s WALL (       1 calls)
     potinit      :      4.72s CPU      6.07s WALL (       1 calls)
     hinit0       :      0.40s CPU      0.45s WALL (       1 calls)

     Called by electrons:
     c_bands      :      5.43s CPU      5.46s WALL (      21 calls)
     sum_band     :      1.49s CPU      1.50s WALL (      21 calls)
     v_of_rho     :      1.62s CPU      2.23s WALL (      21 calls)
     newd         :      5.49s CPU      5.62s WALL (      21 calls)
                                        5.62s GPU  (      21 calls)
     mix_rho      :      0.89s CPU      0.95s WALL (      21 calls)

     Called by c_bands:
     init_us_2    :      0.04s CPU      0.05s WALL (      43 calls)
     cegterg      :      5.30s CPU      5.32s WALL (      21 calls)

     Called by *egterg:
     cdiaghg      :      0.67s CPU      0.69s WALL (      75 calls)
                                        0.69s GPU  (      75 calls)
     h_psi        :      2.39s CPU      2.60s WALL (      77 calls)
                                        2.59s GPU  (      77 calls)
     s_psi        :      0.08s CPU      0.08s WALL (      77 calls)
     g_psi        :      0.00s CPU      0.01s WALL (      55 calls)
                                        0.01s GPU  (      55 calls)

     Called by h_psi:
     h_psi:calbec :      0.07s CPU      0.73s WALL (      77 calls)
                                        0.73s GPU  (      77 calls)
     vloc_psi     :      1.30s CPU      1.31s WALL (      77 calls)
                                        1.31s GPU  (      77 calls)
     add_vuspsi   :      0.08s CPU      0.54s WALL (      77 calls)
                                        0.54s GPU  (      77 calls)

     General routines
     calbec       :      0.07s CPU      0.26s WALL (     103 calls)
     fft          :      4.20s CPU      5.57s WALL (     297 calls)
                                        0.05s GPU  (     276 calls)
     ffts         :      2.41s CPU      3.11s WALL (      42 calls)
                                        0.00s GPU  (      21 calls)
     fftw         :      0.02s CPU      1.32s WALL (    1053 calls)
                                        1.32s GPU  (    1053 calls)
     interpolate  :      6.74s CPU      8.77s WALL (      21 calls)
 
     Parallel routines
 
     PWSCF        :     25.29s CPU     28.80s WALL

 
   This run was terminated on:   9:29:14   6May2026            

=------------------------------------------------------------------------------=
   JOB DONE.
=------------------------------------------------------------------------------=
Warning: ieee_invalid is signaling
Warning: ieee_divide_by_zero is signaling
Warning: ieee_inexact is signaling
FORTRAN STOP
