--------------------------------------------------------------------------
WARNING: Open MPI tried to bind a process but failed.  This is a
warning only; your job will continue, though performance may
be degraded.

  Local host:        3253031b5b37
  Application name:  /root/qe-7.3.1/bin/pw.x
  Error message:     failed to bind memory
  Location:          ../../../../../orte/mca/rtc/hwloc/rtc_hwloc.c:447

--------------------------------------------------------------------------

     Program PWSCF v.7.3.1 starts on  6May2026 at 11:46:20 

     This program is part of the open-source Quantum ESPRESSO suite
     for quantum simulation of materials; please cite
         "P. Giannozzi et al., J. Phys.:Condens. Matter 21 395502 (2009);
         "P. Giannozzi et al., J. Phys.:Condens. Matter 29 465901 (2017);
         "P. Giannozzi et al., J. Chem. Phys. 152 154105 (2020);
          URL http://www.quantum-espresso.org", 
     in publications or presentations arising from this work. More details at
     http://www.quantum-espresso.org/quote

     Parallel version (MPI & OpenMP), running on       8 processor cores
     Number of MPI processes:                 1
     Threads/MPI process:                     8

     MPI processes distributed on     1 nodes
     84888 MiB available memory on the printing compute node when the environment starts
 
     Reading input from pristine_ZrS2.in

     Current dimensions of program PWSCF are:
     Max number of different atomic species (ntypx) = 10
     Max number of k-points (npk) =  40000
     Max angular momentum in pseudopotentials (lmaxx) =  4
     file S.UPF: wavefunction(s)  3S 3P renormalized
     file Zr.UPF: wavefunction(s)  4S 4P renormalized
 
     Subspace diagonalization in iterative solution of the eigenvalue problem:
     a serial algorithm will be used

 
     G-vector sticks info
     --------------------
     sticks:   dense  smooth     PW     G-vecs:    dense   smooth      PW
     Sum        5413    3619    913               520309   283275   35495
 
     Using Slab Decomposition
 


     bravais-lattice index     =            0
     lattice parameter (alat)  =      20.8755  a.u.
     unit-cell volume          =   12759.8041 (a.u.)^3
     number of atoms/cell      =           27
     number of atomic types    =            2
     number of electrons       =       216.00
     number of Kohn-Sham states=          130
     kinetic-energy cutoff     =      30.0000  Ry
     charge density cutoff     =     180.0000  Ry
     scf convergence threshold =      1.0E-07
     mixing beta               =       0.4000
     number of iterations used =            8  plain     mixing
     Exchange-correlation= SLA  PW   PBX  PBC
                           (   1   4   3   4   0   0   0)

     GPU acceleration is ACTIVE.  1 visible GPUs per MPI rank


     celldm(1)=  20.875457  celldm(2)=   0.000000  celldm(3)=   0.000000
     celldm(4)=   0.000000  celldm(5)=   0.000000  celldm(6)=   0.000000

     crystal axes: (cart. coord. in units of alat)
               a(1) = (   1.000000   0.000000   0.000000 )  
               a(2) = (  -0.500000   0.866025   0.000000 )  
               a(3) = (   0.000000   0.000000   1.619591 )  

     reciprocal axes: (cart. coord. in units 2 pi/alat)
               b(1) = (  1.000000  0.577350 -0.000000 )  
               b(2) = (  0.000000  1.154701  0.000000 )  
               b(3) = (  0.000000 -0.000000  0.617440 )  


     PseudoPot. # 1 for S  read from file:
     /root/qe_pseudos/S.UPF
     MD5 check sum: fb45dfebcf3e72a4e1bd4a866ec2e262
     Pseudo is Projector augmented-wave + core cor, Zval =  6.0
     Generated using &quot;atomic&quot; code by A. Dal Corso  v.6.3
     Shape of augmentation charge: PSQ
     Using radial grid of 1151 points,  6 beta functions with: 
                l(1) =   0
                l(2) =   0
                l(3) =   1
                l(4) =   1
                l(5) =   2
                l(6) =   2
     Q(r) pseudized with 0 coefficients 


     PseudoPot. # 2 for Zr read from file:
     /root/qe_pseudos/Zr.UPF
     MD5 check sum: 02112c41713a0468aff2bb39ef194e36
     Pseudo is Projector augmented-wave + core cor, Zval = 12.0
     Generated using &quot;atomic&quot; code by A. Dal Corso  v.6.2.2
     Shape of augmentation charge: PSQ
     Using radial grid of 1225 points,  6 beta functions with: 
                l(1) =   0
                l(2) =   0
                l(3) =   1
                l(4) =   1
                l(5) =   2
                l(6) =   2
     Q(r) pseudized with 0 coefficients 


     atomic species   valence    mass     pseudopotential
     S                 6.00    32.06000     S ( 1.00)
     Zr               12.00    91.22400     Zr( 1.00)

     No symmetry found



   Cartesian axes

     site n.     atom                  positions (alat units)
         1        S      tau(   1) = (   0.5158064   0.6855581   0.9035417  )
         2        S      tau(   2) = (   0.4842972   0.4637141   0.6642684  )
         3        S      tau(   3) = (   0.6668092   0.4058170   0.9315556  )
         4        S      tau(   4) = (   0.6661160   0.1999757   0.6829260  )
         5        S      tau(   5) = (   0.8124250   0.1107208   0.9648948  )
         6        S      tau(   6) = (   0.0206879   0.7551275   0.6544768  )
         7        S      tau(   7) = (   0.1662378   0.6659695   0.9365968  )
         8        S      tau(   8) = (   0.1668482   0.4601829   0.6880394  )
         9        S      tau(   9) = (   0.3126378   0.7553296   0.6547988  )
        10        S      tau(  10) = (   0.3172685   0.1806986   0.7161172  )
        11        S      tau(  11) = (   0.3491132   0.4026283   0.9555055  )
        12        S      tau(  12) = (  -0.3324307   0.7442980   0.6148393  )
        13        S      tau(  13) = (  -0.1825439   0.6855019   0.9034830  )
        14        S      tau(  14) = (  -0.1509164   0.4633867   0.6641002  )
        15        S      tau(  15) = (  -0.0158030   0.4024079   0.9553181  )
        16        S      tau(  16) = (   0.0157090   0.1803854   0.7161844  )
        17        S      tau(  17) = (   0.1671125   0.1218941   1.0048842  )
        18        S      tau(  18) = (   0.5204743   0.1106774   0.9648466  )
        19        Zr     tau(  19) = (   0.1668758   0.2943650   0.8736278  )
        20        Zr     tau(  20) = (   0.4135532  -0.0000154   0.8094847  )
        21        Zr     tau(  21) = (   0.0055396   0.5739211   0.7996727  )
        22        Zr     tau(  22) = (  -0.3330302   0.5717464   0.7460298  )
        23        Zr     tau(  23) = (   0.6664223  -0.0000550   0.8097183  )
        24        Zr     tau(  24) = (   0.5055563   0.2921011   0.8198861  )
        25        Zr     tau(  25) = (  -0.1720329   0.2919692   0.8198964  )
        26        Zr     tau(  26) = (   0.3279745   0.5739701   0.7996840  )
        27        Zr     tau(  27) = (  -0.0805573   0.0000090   0.8099902  )

     number of k points=     1  Methfessel-Paxton smearing, width (Ry)=  0.0100
                       cart. coord. in units 2pi/alat
        k(    1) = (   0.0000000   0.0000000   0.0000000), wk =   2.0000000

     Dense  grid:   520309 G-vectors     FFT dimensions: (  90,  90, 150)

     Smooth grid:   283275 G-vectors     FFT dimensions: (  75,  75, 120)

     Estimated max dynamical RAM per process >       2.48 GB

     Check: negative core charge=   -0.000003

     Initial potential from superposition of free atoms

     starting charge     215.9801, renormalised to     216.0000

     negative rho (up, down):  2.015E-02 0.000E+00
     Starting wfcs are  189 randomized atomic wfcs
     Checking if some PAW data can be deallocated... 

     total cpu time spent up to now is       20.8 secs

     Self-consistent Calculation

     iteration #  1     ecut=    30.00 Ry     beta= 0.40
     Davidson diagonalization with overlap
     ethr =  1.00E-02,  avg # of iterations =  2.0

     negative rho (up, down):  1.957E-02 0.000E+00

     total cpu time spent up to now is       32.8 secs

     total energy              =   -3959.80312216 Ry
     estimated scf accuracy    <       2.28220113 Ry

     iteration #  2     ecut=    30.00 Ry     beta= 0.40
     Davidson diagonalization with overlap
     ethr =  1.06E-03,  avg # of iterations =  6.0

     negative rho (up, down):  1.966E-02 0.000E+00

     total cpu time spent up to now is       45.0 secs

     total energy              =   -3959.16417751 Ry
     estimated scf accuracy    <      13.62266766 Ry

     iteration #  3     ecut=    30.00 Ry     beta= 0.40
     Davidson diagonalization with overlap
     ethr =  1.06E-03,  avg # of iterations =  5.0

     negative rho (up, down):  1.982E-02 0.000E+00

     total cpu time spent up to now is       56.9 secs

     total energy              =   -3960.39628098 Ry
     estimated scf accuracy    <       0.81895558 Ry

     iteration #  4     ecut=    30.00 Ry     beta= 0.40
     Davidson diagonalization with overlap
     ethr =  3.79E-04,  avg # of iterations =  2.0

     negative rho (up, down):  1.994E-02 0.000E+00

     total cpu time spent up to now is       68.8 secs

     total energy              =   -3960.45122945 Ry
     estimated scf accuracy    <       0.18766358 Ry

     iteration #  5     ecut=    30.00 Ry     beta= 0.40
     Davidson diagonalization with overlap
     ethr =  8.69E-05,  avg # of iterations = 10.0

     negative rho (up, down):  2.004E-02 0.000E+00

     total cpu time spent up to now is       81.2 secs

     total energy              =   -3960.46137245 Ry
     estimated scf accuracy    <       0.52406096 Ry

     iteration #  6     ecut=    30.00 Ry     beta= 0.40
     Davidson diagonalization with overlap
     ethr =  8.69E-05,  avg # of iterations =  2.0

     negative rho (up, down):  2.009E-02 0.000E+00

     total cpu time spent up to now is       93.0 secs

     total energy              =   -3960.48911570 Ry
     estimated scf accuracy    <       0.05342797 Ry

     iteration #  7     ecut=    30.00 Ry     beta= 0.40
     Davidson diagonalization with overlap
     ethr =  2.47E-05,  avg # of iterations =  2.0

     negative rho (up, down):  2.024E-02 0.000E+00

     total cpu time spent up to now is      104.8 secs

     total energy              =   -3960.48905374 Ry
     estimated scf accuracy    <       0.01440623 Ry

     iteration #  8     ecut=    30.00 Ry     beta= 0.40
     Davidson diagonalization with overlap
     ethr =  6.67E-06,  avg # of iterations =  9.0

     negative rho (up, down):  2.026E-02 0.000E+00

     total cpu time spent up to now is      116.9 secs

     total energy              =   -3960.49004213 Ry
     estimated scf accuracy    <       0.03320960 Ry

     iteration #  9     ecut=    30.00 Ry     beta= 0.40
     Davidson diagonalization with overlap
     ethr =  6.67E-06,  avg # of iterations =  2.0

     negative rho (up, down):  2.029E-02 0.000E+00

     total cpu time spent up to now is      128.7 secs

     total energy              =   -3960.49021193 Ry
     estimated scf accuracy    <       0.02788193 Ry

     iteration # 10     ecut=    30.00 Ry     beta= 0.40
     Davidson diagonalization with overlap
     ethr =  6.67E-06,  avg # of iterations =  1.0

     negative rho (up, down):  2.031E-02 0.000E+00

     total cpu time spent up to now is      140.5 secs

     total energy              =   -3960.49078995 Ry
     estimated scf accuracy    <       0.00140002 Ry

     iteration # 11     ecut=    30.00 Ry     beta= 0.40
     Davidson diagonalization with overlap
     ethr =  6.48E-07,  avg # of iterations =  7.0

     negative rho (up, down):  2.030E-02 0.000E+00

     total cpu time spent up to now is      152.4 secs

     total energy              =   -3960.49106101 Ry
     estimated scf accuracy    <       0.00107164 Ry

     iteration # 12     ecut=    30.00 Ry     beta= 0.40
     Davidson diagonalization with overlap
     ethr =  4.96E-07,  avg # of iterations =  2.0

     negative rho (up, down):  2.030E-02 0.000E+00

     total cpu time spent up to now is      164.1 secs

     total energy              =   -3960.49112099 Ry
     estimated scf accuracy    <       0.00021102 Ry

     iteration # 13     ecut=    30.00 Ry     beta= 0.40
     Davidson diagonalization with overlap
     ethr =  9.77E-08,  avg # of iterations =  5.0

     negative rho (up, down):  2.030E-02 0.000E+00

     total cpu time spent up to now is      176.2 secs

     total energy              =   -3960.49114232 Ry
     estimated scf accuracy    <       0.00000777 Ry

     iteration # 14     ecut=    30.00 Ry     beta= 0.40
     Davidson diagonalization with overlap
     ethr =  3.60E-09,  avg # of iterations =  8.0

     negative rho (up, down):  2.031E-02 0.000E+00

     total cpu time spent up to now is      188.4 secs

     total energy              =   -3960.49114553 Ry
     estimated scf accuracy    <       0.00000659 Ry

     iteration # 15     ecut=    30.00 Ry     beta= 0.40
     Davidson diagonalization with overlap
     ethr =  3.05E-09,  avg # of iterations =  2.0

     negative rho (up, down):  2.030E-02 0.000E+00

     total cpu time spent up to now is      200.2 secs

     total energy              =   -3960.49114587 Ry
     estimated scf accuracy    <       0.00000161 Ry

     iteration # 16     ecut=    30.00 Ry     beta= 0.40
     Davidson diagonalization with overlap
     ethr =  7.44E-10,  avg # of iterations =  3.0

     negative rho (up, down):  2.030E-02 0.000E+00

     total cpu time spent up to now is      212.2 secs

     total energy              =   -3960.49114606 Ry
     estimated scf accuracy    <       0.00000064 Ry

     iteration # 17     ecut=    30.00 Ry     beta= 0.40
     Davidson diagonalization with overlap
     ethr =  2.98E-10,  avg # of iterations =  2.0

     negative rho (up, down):  2.030E-02 0.000E+00

     total cpu time spent up to now is      224.1 secs

     total energy              =   -3960.49114610 Ry
     estimated scf accuracy    <       0.00000017 Ry

     iteration # 18     ecut=    30.00 Ry     beta= 0.40
     Davidson diagonalization with overlap
     ethr =  8.06E-11,  avg # of iterations =  5.0

     negative rho (up, down):  2.030E-02 0.000E+00

     total cpu time spent up to now is      236.0 secs

     End of self-consistent calculation

          k = 0.0000 0.0000 0.0000 ( 35495 PWs)   bands (ev):

   -51.1942 -51.1899 -51.1859 -51.1821 -50.8717 -50.6632 -50.6622 -50.5405
   -50.5201 -29.4348 -29.2971 -29.2726 -29.2638 -29.2454 -29.2280 -29.2165
   -29.2029 -29.2003 -29.1977 -29.1725 -29.1194 -29.1053 -29.0003 -28.8514
   -28.7304 -28.7288 -28.7220 -28.7153 -28.6873 -28.6482 -28.6222 -28.6011
   -28.5978 -28.5923 -28.5594 -28.2103 -14.5580 -13.9152 -13.9055 -13.8554
   -13.8279 -13.7858 -13.7091 -13.6482 -13.5539 -13.5104 -13.4814 -13.4750
   -13.4003 -13.3288 -13.2859 -13.1715 -12.1798 -12.1792  -6.0355  -5.9295
    -5.9052  -5.8110  -5.8055  -5.6273  -5.5905  -5.5540  -5.3674  -5.3623
    -5.2878  -5.2327  -5.2009  -5.1799  -5.1195  -5.0252  -4.9140  -4.9008
    -4.7862  -4.7455  -4.7178  -4.6239  -4.5698  -4.5407  -4.3707  -4.3452
    -4.3055  -4.2364  -4.2260  -4.1320  -4.1125  -3.9979  -3.9893  -3.9690
    -3.7117  -3.6948  -3.6864  -3.4710  -3.4646  -3.4241  -3.1293  -3.1122
    -3.0372  -2.9967  -2.9628  -2.9178  -2.7661  -2.7121  -2.5986  -2.5604
    -2.3432  -2.1758  -2.1008  -2.0068  -1.9713  -1.3619  -0.8756  -0.7586
    -0.5495  -0.4739  -0.1398   0.1816   0.2212   0.4371   0.5143   0.5928
     0.6588   0.8010   0.8843   0.9121   1.0064   1.0921   1.1780   1.2694
     1.2893   1.3770

     the Fermi energy is    -1.9912 ev

!    total energy              =   -3960.49114606 Ry
     total all-electron energy =    -79151.812073 Ry
     estimated scf accuracy    <       0.00000006 Ry
     smearing contrib. (-TS)   =      -0.00366967 Ry
     internal energy E=F+TS    =   -3960.48747639 Ry

     The total energy is F=E-TS. E is the sum of the following terms:
     one-electron contribution =   -5327.14386263 Ry
     hartree contribution      =    2682.07394516 Ry
     xc contribution           =    -253.37736159 Ry
     ewald contribution        =    1658.34107254 Ry
     one-center paw contrib.   =   -2720.38126987 Ry

     convergence has been achieved in  18 iterations

     negative rho (up, down):  2.030E-02 0.000E+00

     Forces acting on atoms (cartesian axes, Ry/au):

     atom    1 type  1   force =    -0.02208809   -0.00400410   -0.01070512
     atom    2 type  1   force =    -0.01070231   -0.00710579   -0.00117687
     atom    3 type  1   force =    -0.00031941   -0.00565317    0.00306982
     atom    4 type  1   force =     0.00084550   -0.02028281   -0.00064444
     atom    5 type  1   force =    -0.00863125   -0.01109648   -0.00409385
     atom    6 type  1   force =     0.00846278    0.01115891    0.00456100
     atom    7 type  1   force =     0.00065316    0.02045527    0.00074688
     atom    8 type  1   force =    -0.00039461    0.00560658   -0.00313484
     atom    9 type  1   force =    -0.00852004    0.01128241    0.00426050
     atom   10 type  1   force =     0.02243483    0.00387774    0.01056243
     atom   11 type  1   force =     0.01085839    0.00732680    0.00117125
     atom   12 type  1   force =    -0.00001227   -0.01449207    0.01848633
     atom   13 type  1   force =     0.02241171   -0.00386602   -0.01078323
     atom   14 type  1   force =     0.01094451   -0.00745401   -0.00113530
     atom   15 type  1   force =    -0.01085636    0.00703671    0.00116608
     atom   16 type  1   force =    -0.02210021    0.00403332    0.01066876
     atom   17 type  1   force =    -0.00005696    0.01443250   -0.01839587
     atom   18 type  1   force =     0.00848963   -0.01121758   -0.00471575
     atom   19 type  2   force =    -0.00021606   -0.06476499   -0.00771373
     atom   20 type  2   force =    -0.17949309    0.00000446    0.00007110
     atom   21 type  2   force =    -0.01669818   -0.02078221    0.00387126
     atom   22 type  2   force =    -0.00039703    0.06479675    0.00773734
     atom   23 type  2   force =     0.00010302    0.00002315    0.00006602
     atom   24 type  2   force =    -0.01676169    0.02067231   -0.00380603
     atom   25 type  2   force =     0.01639090    0.02110491   -0.00473420
     atom   26 type  2   force =     0.01655766   -0.02080614    0.00466467
     atom   27 type  2   force =     0.17909547   -0.00028644   -0.00006419

     Total force =     0.285985     Total SCF correction =     0.000732


     Computing stress (Cartesian axis) and pressure


     negative rho (up, down):  2.030E-02 0.000E+00
          total   stress  (Ry/bohr**3)                   (kbar)     P=       -6.15
   0.00003359  -0.00000029   0.00000004            4.94       -0.04        0.01
  -0.00000029  -0.00006190  -0.00000359           -0.04       -9.11       -0.53
   0.00000004  -0.00000359  -0.00009704            0.01       -0.53      -14.28


     Writing all to output data dir /root/qe_scratch/pristine_ZrS2.save/ :
     XML data file, charge density, pseudopotentials, collected wavefunctions
 
     init_run     :     15.52s CPU     20.21s WALL (       1 calls)
     electrons    :    175.21s CPU    215.17s WALL (       1 calls)
     forces       :      0.32s CPU      0.35s WALL (       1 calls)
     stress       :      0.77s CPU      0.79s WALL (       1 calls)

     Called by init_run:
     wfcinit      :      0.25s CPU      0.42s WALL (       1 calls)
     potinit      :     14.64s CPU     18.87s WALL (       1 calls)
     hinit0       :      0.38s CPU      0.46s WALL (       1 calls)

     Called by electrons:
     c_bands      :      6.58s CPU      6.61s WALL (      18 calls)
     sum_band     :      1.59s CPU      1.61s WALL (      18 calls)
     v_of_rho     :      1.42s CPU      1.95s WALL (      19 calls)
     newd         :      0.92s CPU      1.01s WALL (      19 calls)
                                        1.01s GPU  (      19 calls)
     PAW_pot      :    170.72s CPU    211.60s WALL (      19 calls)
     mix_rho      :      0.72s CPU      0.76s WALL (      18 calls)

     Called by c_bands:
     init_us_2    :      0.04s CPU      0.05s WALL (      37 calls)
     cegterg      :      6.42s CPU      6.45s WALL (      18 calls)

     Called by *egterg:
     cdiaghg      :      0.80s CPU      0.83s WALL (      93 calls)
                                        0.83s GPU  (      93 calls)
     h_psi        :      2.84s CPU      3.01s WALL (      94 calls)
                                        3.00s GPU  (      94 calls)
     s_psi        :      0.11s CPU      0.11s WALL (      94 calls)
     g_psi        :      0.00s CPU      0.01s WALL (      75 calls)
                                        0.01s GPU  (      75 calls)

     Called by h_psi:
     h_psi:calbec :      0.09s CPU      0.92s WALL (      94 calls)
                                        0.92s GPU  (      94 calls)
     vloc_psi     :      1.35s CPU      1.36s WALL (      94 calls)
                                        1.36s GPU  (      94 calls)
     add_vuspsi   :      0.11s CPU      0.72s WALL (      94 calls)
                                        0.72s GPU  (      94 calls)

     General routines
     calbec       :      0.09s CPU      0.24s WALL (     117 calls)
     fft          :      4.31s CPU      5.80s WALL (     270 calls)
                                        0.05s GPU  (     251 calls)
     ffts         :      3.04s CPU      4.17s WALL (      37 calls)
                                        0.00s GPU  (      18 calls)
     fftw         :      0.03s CPU      1.40s WALL (    1010 calls)
                                        1.40s GPU  (    1010 calls)
     interpolate  :      7.46s CPU     10.07s WALL (      19 calls)
 
     Parallel routines
 
     PWSCF        :   3m12.56s CPU   3m57.42s WALL

 
   This run was terminated on:  11:50:17   6May2026            

=------------------------------------------------------------------------------=
   JOB DONE.
=------------------------------------------------------------------------------=
Warning: ieee_invalid is signaling
Warning: ieee_divide_by_zero is signaling
Warning: ieee_inexact is signaling
FORTRAN STOP
