--------------------------------------------------------------------------
WARNING: Open MPI tried to bind a process but failed.  This is a
warning only; your job will continue, though performance may
be degraded.

  Local host:        3253031b5b37
  Application name:  /root/qe-7.3.1/bin/pw.x
  Error message:     failed to bind memory
  Location:          ../../../../../orte/mca/rtc/hwloc/rtc_hwloc.c:447

--------------------------------------------------------------------------

     Program PWSCF v.7.3.1 starts on  6May2026 at  8:38:35 

     This program is part of the open-source Quantum ESPRESSO suite
     for quantum simulation of materials; please cite
         "P. Giannozzi et al., J. Phys.:Condens. Matter 21 395502 (2009);
         "P. Giannozzi et al., J. Phys.:Condens. Matter 29 465901 (2017);
         "P. Giannozzi et al., J. Chem. Phys. 152 154105 (2020);
          URL http://www.quantum-espresso.org", 
     in publications or presentations arising from this work. More details at
     http://www.quantum-espresso.org/quote

     Parallel version (MPI & OpenMP), running on       8 processor cores
     Number of MPI processes:                 1
     Threads/MPI process:                     8

     MPI processes distributed on     1 nodes
     87860 MiB available memory on the printing compute node when the environment starts
 
     Reading input from pristine_HfS2.in

     Current dimensions of program PWSCF are:
     Max number of different atomic species (ntypx) = 10
     Max number of k-points (npk) =  40000
     Max angular momentum in pseudopotentials (lmaxx) =  4
     file Hf.UPF: wavefunction(s)  5P renormalized
     file S.UPF: wavefunction(s)  3S 3P renormalized
 
     Subspace diagonalization in iterative solution of the eigenvalue problem:
     a serial algorithm will be used

 
     G-vector sticks info
     --------------------
     sticks:   dense  smooth     PW     G-vecs:    dense   smooth      PW
     Sum        5317    3559    889               511765   278619   34847
 
     Using Slab Decomposition
 


     bravais-lattice index     =            0
     lattice parameter (alat)  =      20.7049  a.u.
     unit-cell volume          =   12552.2754 (a.u.)^3
     number of atoms/cell      =           27
     number of atomic types    =            2
     number of electrons       =       216.00
     number of Kohn-Sham states=          130
     kinetic-energy cutoff     =      30.0000  Ry
     charge density cutoff     =     180.0000  Ry
     scf convergence threshold =      1.0E-07
     mixing beta               =       0.4000
     number of iterations used =            8  plain     mixing
     Exchange-correlation= SLA  PW   PBX  PBC
                           (   1   4   3   4   0   0   0)

     GPU acceleration is ACTIVE.  1 visible GPUs per MPI rank


     celldm(1)=  20.704869  celldm(2)=   0.000000  celldm(3)=   0.000000
     celldm(4)=   0.000000  celldm(5)=   0.000000  celldm(6)=   0.000000

     crystal axes: (cart. coord. in units of alat)
               a(1) = (   1.000000   0.000000   0.000000 )  
               a(2) = (  -0.500000   0.866025   0.000000 )  
               a(3) = (   0.000000   0.000000   1.632955 )  

     reciprocal axes: (cart. coord. in units 2 pi/alat)
               b(1) = (  1.000000  0.577350 -0.000000 )  
               b(2) = (  0.000000  1.154701  0.000000 )  
               b(3) = (  0.000000 -0.000000  0.612387 )  


     PseudoPot. # 1 for Hf read from file:
     /root/qe_pseudos/Hf.UPF
     MD5 check sum: bf8a91e620b6303fe4cf956cf37905ef
     Pseudo is Projector augmented-wave + core cor, Zval = 12.0
     Generated using &quot;atomic&quot; code by A. Dal Corso  v.6.2.2
     Shape of augmentation charge: PSQ
     Using radial grid of 1271 points,  6 beta functions with: 
                l(1) =   0
                l(2) =   0
                l(3) =   1
                l(4) =   1
                l(5) =   2
                l(6) =   2
     Q(r) pseudized with 0 coefficients 


     PseudoPot. # 2 for S  read from file:
     /root/qe_pseudos/S.UPF
     MD5 check sum: fb45dfebcf3e72a4e1bd4a866ec2e262
     Pseudo is Projector augmented-wave + core cor, Zval =  6.0
     Generated using &quot;atomic&quot; code by A. Dal Corso  v.6.3
     Shape of augmentation charge: PSQ
     Using radial grid of 1151 points,  6 beta functions with: 
                l(1) =   0
                l(2) =   0
                l(3) =   1
                l(4) =   1
                l(5) =   2
                l(6) =   2
     Q(r) pseudized with 0 coefficients 


     atomic species   valence    mass     pseudopotential
     Hf               12.00   178.49000     Hf( 1.00)
     S                 6.00    32.06000     S ( 1.00)

     No symmetry found



   Cartesian axes

     site n.     atom                  positions (alat units)
         1        Hf     tau(   1) = (   0.0031105  -0.0030622   0.8103437  )
         2        Hf     tau(   2) = (   0.3354355   0.5760880   0.8164748  )
         3        Hf     tau(   3) = (  -0.1682476   0.2895665   0.8072328  )
         4        Hf     tau(   4) = (  -0.3319811   0.5763869   0.8162750  )
         5        Hf     tau(   5) = (   0.5015744   0.2875284   0.8163269  )
         6        Hf     tau(   6) = (   0.3371541  -0.0019645   0.8195550  )
         7        Hf     tau(   7) = (   0.6615269  -0.0018390   0.8145085  )
         8        Hf     tau(   8) = (   0.1706186   0.2876247   0.8105729  )
         9        Hf     tau(   9) = (  -0.0006748   0.5826924   0.8147560  )
        10        S      tau(  10) = (   0.4997498   0.6747725   0.9462934  )
        11        S      tau(  11) = (   0.4999176   0.4810041   0.6844884  )
        12        S      tau(  12) = (   0.6706108   0.3828956   0.9478922  )
        13        S      tau(  13) = (   0.6648944   0.1935121   0.6827770  )
        14        S      tau(  14) = (   0.8331681   0.0951149   0.9452256  )
        15        S      tau(  15) = (  -0.0035987   0.7714708   0.6799017  )
        16        S      tau(  16) = (   0.1666273   0.6735466   0.9445938  )
        17        S      tau(  17) = (   0.3326347   0.3845833   0.9463654  )
        18        S      tau(  18) = (   0.3318139   0.7709200   0.6861647  )
        19        S      tau(  19) = (   0.3341542   0.1916381   0.6861969  )
        20        S      tau(  20) = (   0.5014858   0.0966636   0.9500754  )
        21        S      tau(  21) = (  -0.3319380   0.7696718   0.6857792  )
        22        S      tau(  22) = (  -0.1666018   0.6720058   0.9495009  )
        23        S      tau(  23) = (  -0.1685023   0.4823754   0.6830097  )
        24        S      tau(  24) = (   0.0003611   0.3856240   0.9455714  )
        25        S      tau(  25) = (   0.0003087   0.1923183   0.6839106  )
        26        S      tau(  26) = (   0.1636153   0.0979947   0.9464170  )
        27        S      tau(  27) = (   0.1648428   0.4819838   0.6862358  )

     number of k points=     1  Methfessel-Paxton smearing, width (Ry)=  0.0100
                       cart. coord. in units 2pi/alat
        k(    1) = (   0.0000000   0.0000000   0.0000000), wk =   2.0000000

     Dense  grid:   511765 G-vectors     FFT dimensions: (  90,  90, 150)

     Smooth grid:   278619 G-vectors     FFT dimensions: (  75,  75, 120)

     Estimated max dynamical RAM per process >       2.44 GB

     Check: negative core charge=   -0.000004

     Initial potential from superposition of free atoms

     starting charge     215.9820, renormalised to     216.0000

     negative rho (up, down):  6.473E-02 0.000E+00
     Starting wfcs are  162 randomized atomic wfcs
     Checking if some PAW data can be deallocated... 

     total cpu time spent up to now is       21.2 secs

     Self-consistent Calculation

     iteration #  1     ecut=    30.00 Ry     beta= 0.40
     Davidson diagonalization with overlap
     ethr =  1.00E-02,  avg # of iterations =  3.0

     negative rho (up, down):  6.067E-02 0.000E+00

     total cpu time spent up to now is       33.5 secs

     total energy              =   -7461.46189486 Ry
     estimated scf accuracy    <       2.37496081 Ry

     iteration #  2     ecut=    30.00 Ry     beta= 0.40
     Davidson diagonalization with overlap
     ethr =  1.10E-03,  avg # of iterations =  3.0

     negative rho (up, down):  5.916E-02 0.000E+00

     total cpu time spent up to now is       45.6 secs

     total energy              =   -7461.96802479 Ry
     estimated scf accuracy    <       0.67864822 Ry

     iteration #  3     ecut=    30.00 Ry     beta= 0.40
     Davidson diagonalization with overlap
     ethr =  3.14E-04,  avg # of iterations =  2.0

     negative rho (up, down):  5.843E-02 0.000E+00

     total cpu time spent up to now is       57.5 secs

     total energy              =   -7462.07044587 Ry
     estimated scf accuracy    <       0.07062877 Ry

     iteration #  4     ecut=    30.00 Ry     beta= 0.40
     Davidson diagonalization with overlap
     ethr =  3.27E-05,  avg # of iterations =  3.0

     negative rho (up, down):  5.758E-02 0.000E+00

     total cpu time spent up to now is       69.5 secs

     total energy              =   -7462.08180419 Ry
     estimated scf accuracy    <       0.03317740 Ry

     iteration #  5     ecut=    30.00 Ry     beta= 0.40
     Davidson diagonalization with overlap
     ethr =  1.54E-05,  avg # of iterations =  2.0

     negative rho (up, down):  5.720E-02 0.000E+00

     total cpu time spent up to now is       81.4 secs

     total energy              =   -7462.08488136 Ry
     estimated scf accuracy    <       0.01117462 Ry

     iteration #  6     ecut=    30.00 Ry     beta= 0.40
     Davidson diagonalization with overlap
     ethr =  5.17E-06,  avg # of iterations =  3.0

     negative rho (up, down):  5.701E-02 0.000E+00

     total cpu time spent up to now is       93.4 secs

     total energy              =   -7462.08647493 Ry
     estimated scf accuracy    <       0.00571243 Ry

     iteration #  7     ecut=    30.00 Ry     beta= 0.40
     Davidson diagonalization with overlap
     ethr =  2.64E-06,  avg # of iterations = 15.0

     negative rho (up, down):  5.686E-02 0.000E+00

     total cpu time spent up to now is      106.1 secs

     total energy              =   -7462.08679878 Ry
     estimated scf accuracy    <       0.00059521 Ry

     iteration #  8     ecut=    30.00 Ry     beta= 0.40
     Davidson diagonalization with overlap
     ethr =  2.76E-07,  avg # of iterations =  5.0

     negative rho (up, down):  5.671E-02 0.000E+00

     total cpu time spent up to now is      118.2 secs

     total energy              =   -7462.08705877 Ry
     estimated scf accuracy    <       0.00036447 Ry

     iteration #  9     ecut=    30.00 Ry     beta= 0.40
     Davidson diagonalization with overlap
     ethr =  1.69E-07,  avg # of iterations =  2.0

     negative rho (up, down):  5.662E-02 0.000E+00

     total cpu time spent up to now is      130.2 secs

     total energy              =   -7462.08707741 Ry
     estimated scf accuracy    <       0.00004467 Ry

     iteration # 10     ecut=    30.00 Ry     beta= 0.40
     Davidson diagonalization with overlap
     ethr =  2.07E-08,  avg # of iterations =  4.0

     negative rho (up, down):  5.657E-02 0.000E+00

     total cpu time spent up to now is      142.3 secs

     total energy              =   -7462.08709133 Ry
     estimated scf accuracy    <       0.00000186 Ry

     iteration # 11     ecut=    30.00 Ry     beta= 0.40
     Davidson diagonalization with overlap
     ethr =  8.62E-10,  avg # of iterations =  5.0

     negative rho (up, down):  5.654E-02 0.000E+00

     total cpu time spent up to now is      154.4 secs

     total energy              =   -7462.08709162 Ry
     estimated scf accuracy    <       0.00000092 Ry

     iteration # 12     ecut=    30.00 Ry     beta= 0.40
     Davidson diagonalization with overlap
     ethr =  4.24E-10,  avg # of iterations =  5.0

     negative rho (up, down):  5.652E-02 0.000E+00

     total cpu time spent up to now is      166.4 secs

     total energy              =   -7462.08709195 Ry
     estimated scf accuracy    <       0.00000027 Ry

     iteration # 13     ecut=    30.00 Ry     beta= 0.40
     Davidson diagonalization with overlap
     ethr =  1.26E-10,  avg # of iterations =  2.0

     negative rho (up, down):  5.650E-02 0.000E+00

     total cpu time spent up to now is      178.3 secs

     End of self-consistent calculation

          k = 0.0000 0.0000 0.0000 ( 34847 PWs)   bands (ev):

   -64.2602 -64.2040 -64.1931 -64.1603 -64.1453 -64.1315 -64.0277 -64.0163
   -64.0053 -32.8269 -32.8210 -32.8060 -32.7780 -32.7685 -32.7569 -32.7563
   -32.7441 -32.7368 -32.7249 -32.7128 -32.7013 -32.6977 -32.6858 -32.6830
   -32.6524 -32.6328 -32.6204 -32.6075 -32.5894 -32.5877 -32.5784 -32.5529
   -32.5466 -32.5174 -32.5069 -32.5023 -14.7628 -13.9223 -13.9109 -13.8846
   -13.8086 -13.7960 -13.7779 -13.5173 -13.4702 -13.4614 -13.4023 -13.3791
   -13.3609 -13.3451 -13.3181 -13.2440 -13.0346 -12.9777  -6.0562  -6.0330
    -5.9960  -5.9832  -5.9425  -5.9357  -5.8910  -5.6876  -5.6617  -5.4168
    -5.4119  -5.3396  -5.3182  -5.1612  -5.1533  -5.1451  -5.1293  -5.1232
    -5.0719  -4.6205  -4.6098  -4.5314  -4.5125  -4.4903  -4.4041  -4.3901
    -4.3582  -4.3569  -4.3356  -4.3305  -4.3000  -4.2941  -4.2710  -3.8315
    -3.7847  -3.7715  -3.7387  -3.7074  -3.6837  -3.1225  -3.0680  -3.0653
    -3.0260  -3.0022  -2.9924  -2.9218  -2.8773  -2.8677  -2.8124  -2.7661
    -2.6515  -2.6305  -2.0114  -2.0032  -0.6484  -0.5452  -0.5409  -0.4681
    -0.4522  -0.4217   0.0721   0.0820   0.7351   0.7405   0.8133   1.5542
     1.5790   1.5905   1.6370   1.6613   1.6708   1.7374   1.7435   1.7768
     1.8105   1.8475

     the Fermi energy is    -1.3626 ev

!    total energy              =   -7462.08709201 Ry
     total all-electron energy =   -285786.766928 Ry
     estimated scf accuracy    <       0.00000002 Ry
     smearing contrib. (-TS)   =       0.00000000 Ry
     internal energy E=F+TS    =   -7462.08709201 Ry

     The total energy is F=E-TS. E is the sum of the following terms:
     one-electron contribution =   -5565.03521541 Ry
     hartree contribution      =    2799.40799446 Ry
     xc contribution           =    -464.81107733 Ry
     ewald contribution        =    1766.53919681 Ry
     one-center paw contrib.   =   -5998.18799054 Ry

     convergence has been achieved in  13 iterations

     negative rho (up, down):  5.650E-02 0.000E+00

     Forces acting on atoms (cartesian axes, Ry/au):

     atom    1 type  1   force =    -0.01742238    0.01879816    0.01932705
     atom    2 type  1   force =    -0.00050077    0.00048587   -0.00589190
     atom    3 type  1   force =     0.02214529   -0.01201537    0.03247030
     atom    4 type  1   force =    -0.00773984   -0.00678744    0.00367636
     atom    5 type  1   force =     0.00193106    0.01197292    0.00458215
     atom    6 type  1   force =    -0.02305999    0.01148073    0.00694758
     atom    7 type  1   force =     0.04148579    0.01140032    0.01032067
     atom    8 type  1   force =    -0.02550394    0.00586573    0.02042433
     atom    9 type  1   force =     0.00903952   -0.04135722    0.01052761
     atom   10 type  2   force =     0.00238067   -0.00518009   -0.00718513
     atom   11 type  2   force =     0.00173346   -0.00103552    0.00975225
     atom   12 type  2   force =    -0.00948863    0.00462681   -0.01536022
     atom   13 type  2   force =    -0.00762422   -0.00558101    0.00152449
     atom   14 type  2   force =    -0.00678874    0.00313486   -0.02688974
     atom   15 type  2   force =    -0.00042491    0.00153596    0.00980132
     atom   16 type  2   force =    -0.00672035    0.00433309   -0.00286959
     atom   17 type  2   force =     0.00485730    0.00025255   -0.00740952
     atom   18 type  2   force =    -0.00393764   -0.00614803    0.00009883
     atom   19 type  2   force =     0.00976092   -0.00677001   -0.00074320
     atom   20 type  2   force =    -0.00554472   -0.00223027   -0.01017073
     atom   21 type  2   force =     0.01028769   -0.00506187    0.00041416
     atom   22 type  2   force =    -0.00055292    0.00677907   -0.00881955
     atom   23 type  2   force =     0.00089498    0.00814734    0.00119177
     atom   24 type  2   force =    -0.00465677    0.00359650   -0.02725109
     atom   25 type  2   force =     0.00235718   -0.00083341   -0.00307174
     atom   26 type  2   force =     0.00941695   -0.00522956   -0.01537745
     atom   27 type  2   force =     0.00367503    0.00581990   -0.00001900

     Total force =     0.110537     Total SCF correction =     0.000273


     Computing stress (Cartesian axis) and pressure


     negative rho (up, down):  5.650E-02 0.000E+00
          total   stress  (Ry/bohr**3)                   (kbar)     P=       -8.23
  -0.00003961  -0.00000219  -0.00000739           -5.83       -0.32       -1.09
  -0.00000219  -0.00004220   0.00000433           -0.32       -6.21        0.64
  -0.00000739   0.00000433  -0.00008612           -1.09        0.64      -12.67


     Writing all to output data dir /root/qe_scratch/pristine_HfS2.save/ :
     XML data file, charge density, pseudopotentials, collected wavefunctions
 
     init_run     :     15.80s CPU     20.54s WALL (       1 calls)
     electrons    :    128.27s CPU    157.13s WALL (       1 calls)
     forces       :      0.32s CPU      0.35s WALL (       1 calls)
     stress       :      0.74s CPU      0.78s WALL (       1 calls)

     Called by init_run:
     wfcinit      :      0.30s CPU      0.50s WALL (       1 calls)
     potinit      :     14.83s CPU     19.10s WALL (       1 calls)
     hinit0       :      0.42s CPU      0.50s WALL (       1 calls)

     Called by electrons:
     c_bands      :      4.84s CPU      4.86s WALL (      13 calls)
     sum_band     :      1.14s CPU      1.15s WALL (      13 calls)
     v_of_rho     :      1.05s CPU      1.47s WALL (      14 calls)
     newd         :      0.67s CPU      0.75s WALL (      14 calls)
                                        0.75s GPU  (      14 calls)
     PAW_pot      :    127.52s CPU    157.65s WALL (      14 calls)
     mix_rho      :      0.46s CPU      0.51s WALL (      13 calls)

     Called by c_bands:
     init_us_2    :      0.03s CPU      0.03s WALL (      27 calls)
     cegterg      :      4.73s CPU      4.74s WALL (      13 calls)

     Called by *egterg:
     cdiaghg      :      0.59s CPU      0.61s WALL (      67 calls)
                                        0.61s GPU  (      67 calls)
     h_psi        :      2.25s CPU      2.44s WALL (      68 calls)
                                        2.44s GPU  (      68 calls)
     s_psi        :      0.08s CPU      0.08s WALL (      68 calls)
     g_psi        :      0.00s CPU      0.01s WALL (      54 calls)
                                        0.01s GPU  (      54 calls)

     Called by h_psi:
     h_psi:calbec :      0.09s CPU      0.77s WALL (      68 calls)
                                        0.77s GPU  (      68 calls)
     vloc_psi     :      1.11s CPU      1.12s WALL (      68 calls)
                                        1.12s GPU  (      68 calls)
     add_vuspsi   :      0.08s CPU      0.54s WALL (      68 calls)
                                        0.54s GPU  (      68 calls)

     General routines
     calbec       :      0.09s CPU      0.26s WALL (      86 calls)
     fft          :      3.95s CPU      5.37s WALL (     205 calls)
                                        0.04s GPU  (     191 calls)
     ffts         :      3.02s CPU      4.06s WALL (      27 calls)
                                        0.00s GPU  (      13 calls)
     fftw         :      0.08s CPU      1.14s WALL (     769 calls)
                                        1.14s GPU  (     769 calls)
     interpolate  :      7.07s CPU      9.49s WALL (      14 calls)
 
     Parallel routines
 
     PWSCF        :   2m25.90s CPU   2m59.74s WALL

 
   This run was terminated on:   8:41:34   6May2026            

=------------------------------------------------------------------------------=
   JOB DONE.
=------------------------------------------------------------------------------=
Warning: ieee_invalid is signaling
Warning: ieee_divide_by_zero is signaling
Warning: ieee_inexact is signaling
FORTRAN STOP
