--------------------------------------------------------------------------
WARNING: Open MPI tried to bind a process but failed.  This is a
warning only; your job will continue, though performance may
be degraded.

  Local host:        3253031b5b37
  Application name:  /root/qe-7.3.1/bin/pw.x
  Error message:     failed to bind memory
  Location:          ../../../../../orte/mca/rtc/hwloc/rtc_hwloc.c:447

--------------------------------------------------------------------------

     Program PWSCF v.7.3.1 starts on  6May2026 at  9:33:29 

     This program is part of the open-source Quantum ESPRESSO suite
     for quantum simulation of materials; please cite
         "P. Giannozzi et al., J. Phys.:Condens. Matter 21 395502 (2009);
         "P. Giannozzi et al., J. Phys.:Condens. Matter 29 465901 (2017);
         "P. Giannozzi et al., J. Chem. Phys. 152 154105 (2020);
          URL http://www.quantum-espresso.org", 
     in publications or presentations arising from this work. More details at
     http://www.quantum-espresso.org/quote

     Parallel version (MPI & OpenMP), running on       8 processor cores
     Number of MPI processes:                 1
     Threads/MPI process:                     8

     MPI processes distributed on     1 nodes
     85967 MiB available memory on the printing compute node when the environment starts
 
     Reading input from pristine_Ti2CO2.in

     Current dimensions of program PWSCF are:
     Max number of different atomic species (ntypx) = 10
     Max number of k-points (npk) =  40000
     Max angular momentum in pseudopotentials (lmaxx) =  4
     file Ti.UPF: wavefunction(s)  3S 3P 3D renormalized
 
     Subspace diagonalization in iterative solution of the eigenvalue problem:
     a serial algorithm will be used

 
     G-vector sticks info
     --------------------
     sticks:   dense  smooth     PW     G-vecs:    dense   smooth      PW
     Sum        6505    4339   1069               681217   370707   46193
 
     Using Slab Decomposition
 


     bravais-lattice index     =            0
     lattice parameter (alat)  =      22.9196  a.u.
     unit-cell volume          =   16700.1634 (a.u.)^3
     number of atoms/cell      =           80
     number of atomic types    =            3
     number of electrons       =       640.00
     number of Kohn-Sham states=          384
     kinetic-energy cutoff     =      30.0000  Ry
     charge density cutoff     =     180.0000  Ry
     scf convergence threshold =      1.0E-07
     mixing beta               =       0.4000
     number of iterations used =            8  plain     mixing
     Exchange-correlation= SLA  PW   PBX  PBC
                           (   1   4   3   4   0   0   0)

     GPU acceleration is ACTIVE.  1 visible GPUs per MPI rank


     celldm(1)=  22.919623  celldm(2)=   0.000000  celldm(3)=   0.000000
     celldm(4)=   0.000000  celldm(5)=   0.000000  celldm(6)=   0.000000

     crystal axes: (cart. coord. in units of alat)
               a(1) = (   1.000000   0.000000   0.000000 )  
               a(2) = (  -0.500000   0.866025   0.000000 )  
               a(3) = (   0.000000   0.000000   1.601650 )  

     reciprocal axes: (cart. coord. in units 2 pi/alat)
               b(1) = (  1.000000  0.577350 -0.000000 )  
               b(2) = (  0.000000  1.154701  0.000000 )  
               b(3) = (  0.000000 -0.000000  0.624356 )  


     PseudoPot. # 1 for C  read from file:
     /root/qe_pseudos/C.UPF
     MD5 check sum: 9b35a7431356f8229172919cb1fa74b8
     Pseudo is Norm-conserving, Zval =  4.0
     Generated by new atomic code, or converted to UPF format
     Using radial grid of 1073 points,  1 beta functions with: 
                l(1) =   0

     PseudoPot. # 2 for O  read from file:
     /root/qe_pseudos/O.UPF
     MD5 check sum: c7f41d994d4e90c1781f5cd713c45011
     Pseudo is Projector augmented-wave + core cor, Zval =  6.0
     Generated using "atomic" code by A. Dal Corso (espresso distribution)
     Shape of augmentation charge: BESSEL
     Using radial grid of 1095 points,  4 beta functions with: 
                l(1) =   0
                l(2) =   0
                l(3) =   1
                l(4) =   1
     Q(r) pseudized with 0 coefficients 


     PseudoPot. # 3 for Ti read from file:
     /root/qe_pseudos/Ti.UPF
     MD5 check sum: 01f69b0d8ba4438b2e03ac6ea4af1c0b
     Pseudo is Projector augmented-wave + core cor, Zval = 12.0
     Generated using &quot;atomic&quot; code by A. Dal Corso  v.6.2.2
     Shape of augmentation charge: PSQ
     Using radial grid of 1177 points,  6 beta functions with: 
                l(1) =   0
                l(2) =   0
                l(3) =   1
                l(4) =   1
                l(5) =   2
                l(6) =   2
     Q(r) pseudized with 0 coefficients 


     atomic species   valence    mass     pseudopotential
     C                 4.00    12.01100     C ( 1.00)
     O                 6.00    15.99900     O ( 1.00)
     Ti               12.00    47.86700     Ti( 1.00)

     No symmetry found



   Cartesian axes

     site n.     atom                  positions (alat units)
         1        C      tau(   1) = (   0.1249188   0.6499129   0.8017710  )
         2        C      tau(   2) = (   0.2497002   0.4329782   0.8015083  )
         3        C      tau(   3) = (   0.0013343  -0.0001803   0.7965345  )
         4        C      tau(   4) = (   0.3753360   0.2158560   0.8014691  )
         5        C      tau(   5) = (   0.7494872  -0.0014052   0.7995173  )
         6        C      tau(   6) = (   0.3737900   0.6497823   0.7994387  )
         7        C      tau(   7) = (   0.4999722  -0.0009064   0.8013069  )
         8        C      tau(   8) = (  -0.1244642   0.2177356   0.7994139  )
         9        C      tau(   9) = (  -0.1251317   0.6495064   0.8021058  )
        10        C      tau(  10) = (  -0.0000586   0.4328371   0.8019206  )
        11        C      tau(  11) = (   0.6257128   0.2157144   0.8009463  )
        12        C      tau(  12) = (   0.1241309   0.2166367   0.8012095  )
        13        C      tau(  13) = (  -0.2492027   0.4335097   0.8010627  )
        14        C      tau(  14) = (   0.2499194  -0.0008014   0.8014235  )
        15        C      tau(  15) = (  -0.3742097   0.6492817   0.7997662  )
        16        C      tau(  16) = (   0.5001909   0.4335933   0.8009429  )
        17        O      tau(  17) = (  -0.1234682   0.5060488   0.6181766  )
        18        O      tau(  18) = (  -0.1250693   0.7945856   0.9836062  )
        19        O      tau(  19) = (  -0.0007331   0.7204492   0.6189406  )
        20        O      tau(  20) = (   0.5001006   0.7194885   0.6157836  )
        21        O      tau(  21) = (   0.7463851   0.1462507   0.9860471  )
        22        O      tau(  22) = (   0.4999572   0.1445103   0.9837096  )
        23        O      tau(  23) = (   0.6233818   0.0726057   0.6188243  )
        24        O      tau(  24) = (  -0.1251383   0.3601303   0.9840684  )
        25        O      tau(  25) = (   0.1281523   0.0741461   0.6163491  )
        26        O      tau(  26) = (   0.3754952   0.3607461   0.9838949  )
        27        O      tau(  27) = (   0.4998910   0.2883867   0.6197260  )
        28        O      tau(  28) = (   0.2470808   0.7199492   0.6169612  )
        29        O      tau(  29) = (   0.3753654   0.7919149   0.9919057  )
        30        O      tau(  30) = (   0.2508844   0.5774315   0.9838792  )
        31        O      tau(  31) = (   0.3744967   0.5036101   0.6185398  )
        32        O      tau(  32) = (   0.0033997   0.1428541   0.9902424  )
        33        O      tau(  33) = (   0.5000394   0.5748048   0.9847660  )
        34        O      tau(  34) = (   0.8736566   0.0731561   0.6159089  )
        35        O      tau(  35) = (   0.7493030   0.2895528   0.6181769  )
        36        O      tau(  36) = (  -0.3757893   0.7969653   0.9899836  )
        37        O      tau(  37) = (  -0.2470495   0.7213302   0.6175998  )
        38        O      tau(  38) = (  -0.2506540   0.5774672   0.9839436  )
        39        O      tau(  39) = (   0.2505590   0.1441140   0.9837039  )
        40        O      tau(  40) = (   0.3753011   0.0720146   0.6192684  )
        41        O      tau(  41) = (   0.1236323   0.5051283   0.6185349  )
        42        O      tau(  42) = (   0.6244734   0.3606052   0.9830807  )
        43        O      tau(  43) = (   0.1253904   0.3604643   0.9838101  )
        44        O      tau(  44) = (   0.1256118   0.7945312   0.9841906  )
        45        O      tau(  45) = (   0.2499056   0.2888345   0.6194117  )
        46        O      tau(  46) = (   0.0013245   0.2913879   0.6173643  )
        47        O      tau(  47) = (   0.0001666   0.5774413   0.9835165  )
        48        O      tau(  48) = (   0.6253355   0.5039489   0.6179019  )
        49        Ti     tau(  49) = (   0.4982494   0.7222314   0.8944902  )
        50        Ti     tau(  50) = (   0.8755397   0.0704040   0.8929176  )
        51        Ti     tau(  51) = (   0.3749821   0.7945517   0.6954423  )
        52        Ti     tau(  52) = (   0.7505154   0.2869371   0.9080004  )
        53        Ti     tau(  53) = (   0.7502059   0.1444669   0.6926967  )
        54        Ti     tau(  54) = (   0.4998822   0.5784003   0.6935007  )
        55        Ti     tau(  55) = (   0.6242944   0.5063219   0.9073039  )
        56        Ti     tau(  56) = (   0.6246349   0.3613529   0.6929209  )
        57        Ti     tau(  57) = (  -0.0001596   0.1418761   0.6961375  )
        58        Ti     tau(  58) = (   0.1275730   0.7936226   0.7004576  )
        59        Ti     tau(  59) = (   0.1257438   0.0727206   0.9058561  )
        60        Ti     tau(  60) = (  -0.1247682   0.3587514   0.6979521  )
        61        Ti     tau(  61) = (   0.0003479   0.2863292   0.9084459  )
        62        Ti     tau(  62) = (  -0.2503624   0.5778067   0.6959356  )
        63        Ti     tau(  63) = (  -0.1253183   0.5048690   0.9076752  )
        64        Ti     tau(  64) = (  -0.3770250   0.7940274   0.6957541  )
        65        Ti     tau(  65) = (  -0.2508581   0.7229755   0.9079026  )
        66        Ti     tau(  66) = (   0.2494795   0.1441205   0.6922846  )
        67        Ti     tau(  67) = (   0.3745120   0.0718920   0.9059445  )
        68        Ti     tau(  68) = (   0.2530498   0.7245134   0.9089797  )
        69        Ti     tau(  69) = (   0.1228620   0.3610579   0.6936770  )
        70        Ti     tau(  70) = (  -0.0009251   0.5771396   0.6926827  )
        71        Ti     tau(  71) = (   0.1243359   0.5062889   0.9070138  )
        72        Ti     tau(  72) = (  -0.1251728   0.7929794   0.6932917  )
        73        Ti     tau(  73) = (   0.0001135   0.7217934   0.9063679  )
        74        Ti     tau(  74) = (   0.6268374   0.0736395   0.9104792  )
        75        Ti     tau(  75) = (   0.3744465   0.3616613   0.6943623  )
        76        Ti     tau(  76) = (   0.4997562   0.2888820   0.9100555  )
        77        Ti     tau(  77) = (   0.2507614   0.5794139   0.6962552  )
        78        Ti     tau(  78) = (   0.3755897   0.5060977   0.9092215  )
        79        Ti     tau(  79) = (   0.2488962   0.2897206   0.9068658  )
        80        Ti     tau(  80) = (   0.5009897   0.1436925   0.6945257  )

     number of k points=     1  Methfessel-Paxton smearing, width (Ry)=  0.0100
                       cart. coord. in units 2pi/alat
        k(    1) = (   0.0000000   0.0000000   0.0000000), wk =   2.0000000

     Dense  grid:   681217 G-vectors     FFT dimensions: ( 100, 100, 160)

     Smooth grid:   370707 G-vectors     FFT dimensions: (  80,  80, 135)

     Estimated max dynamical RAM per process >       4.12 GB

     Check: negative core charge=   -0.000044

     Initial potential from superposition of free atoms

     starting charge     631.9530, renormalised to     640.0000

     negative rho (up, down):  4.767E-02 0.000E+00
     Starting wfcs are  576 randomized atomic wfcs
     Checking if some PAW data can be deallocated... 

     total cpu time spent up to now is       25.9 secs

     Self-consistent Calculation

     iteration #  1     ecut=    30.00 Ry     beta= 0.40
     Davidson diagonalization with overlap
     ethr =  1.00E-02,  avg # of iterations =  3.0

     negative rho (up, down):  4.277E-02 0.000E+00

     total cpu time spent up to now is       45.5 secs

     total energy              =   -7381.86214464 Ry
     estimated scf accuracy    <      53.04986228 Ry

     iteration #  2     ecut=    30.00 Ry     beta= 0.40
     Davidson diagonalization with overlap
     ethr =  8.29E-03,  avg # of iterations =  4.0

     negative rho (up, down):  5.784E-02 0.000E+00

     total cpu time spent up to now is       65.1 secs

     total energy              =   -7392.05244388 Ry
     estimated scf accuracy    <      20.24988883 Ry

     iteration #  3     ecut=    30.00 Ry     beta= 0.40
     Davidson diagonalization with overlap
     ethr =  3.16E-03,  avg # of iterations =  6.0

     negative rho (up, down):  7.527E-02 0.000E+00

     total cpu time spent up to now is       84.7 secs

     total energy              =   -7392.94588983 Ry
     estimated scf accuracy    <      57.08585919 Ry

     iteration #  4     ecut=    30.00 Ry     beta= 0.40
     Davidson diagonalization with overlap
     ethr =  3.16E-03,  avg # of iterations =  2.0

     negative rho (up, down):  8.782E-02 0.000E+00

     total cpu time spent up to now is      103.9 secs

     total energy              =   -7397.07075102 Ry
     estimated scf accuracy    <       1.83552562 Ry

     iteration #  5     ecut=    30.00 Ry     beta= 0.40
     Davidson diagonalization with overlap
     ethr =  2.87E-04,  avg # of iterations =  8.0

     negative rho (up, down):  9.196E-02 0.000E+00

     total cpu time spent up to now is      124.1 secs

     total energy              =   -7397.17304729 Ry
     estimated scf accuracy    <       0.65875341 Ry

     iteration #  6     ecut=    30.00 Ry     beta= 0.40
     Davidson diagonalization with overlap
     ethr =  1.03E-04,  avg # of iterations =  4.0

     negative rho (up, down):  1.021E-01 0.000E+00

     total cpu time spent up to now is      143.5 secs

     total energy              =   -7397.22256669 Ry
     estimated scf accuracy    <       0.22547269 Ry

     iteration #  7     ecut=    30.00 Ry     beta= 0.40
     Davidson diagonalization with overlap
     ethr =  3.52E-05,  avg # of iterations = 19.0

     negative rho (up, down):  1.220E-01 0.000E+00

     total cpu time spent up to now is      164.6 secs

     total energy              =   -7397.22389792 Ry
     estimated scf accuracy    <       0.51906331 Ry

     iteration #  8     ecut=    30.00 Ry     beta= 0.40
     Davidson diagonalization with overlap
     ethr =  3.52E-05,  avg # of iterations = 13.0

     negative rho (up, down):  1.478E-01 0.000E+00

     total cpu time spent up to now is      184.8 secs

     total energy              =   -7397.24231532 Ry
     estimated scf accuracy    <       0.12767817 Ry

     iteration #  9     ecut=    30.00 Ry     beta= 0.40
     Davidson diagonalization with overlap
     ethr =  1.99E-05,  avg # of iterations =  3.0

     negative rho (up, down):  1.806E-01 0.000E+00

     total cpu time spent up to now is      204.3 secs

     total energy              =   -7397.26277577 Ry
     estimated scf accuracy    <       0.01145325 Ry

     iteration # 10     ecut=    30.00 Ry     beta= 0.40
     Davidson diagonalization with overlap
     c_bands:  1 eigenvalues not converged
     ethr =  1.79E-06,  avg # of iterations = 20.0

     negative rho (up, down):  2.201E-01 0.000E+00

     total cpu time spent up to now is      225.7 secs

     total energy              =   -7397.26744778 Ry
     estimated scf accuracy    <       0.01086064 Ry

     iteration # 11     ecut=    30.00 Ry     beta= 0.40
     Davidson diagonalization with overlap
     ethr =  1.70E-06,  avg # of iterations = 11.0

     negative rho (up, down):  2.708E-01 0.000E+00

     total cpu time spent up to now is      245.9 secs

     total energy              =   -7397.27101119 Ry
     estimated scf accuracy    <       0.00405682 Ry

     iteration # 12     ecut=    30.00 Ry     beta= 0.40
     Davidson diagonalization with overlap
     ethr =  6.34E-07,  avg # of iterations =  4.0

     negative rho (up, down):  3.322E-01 0.000E+00

     total cpu time spent up to now is      265.4 secs

     total energy              =   -7397.27420841 Ry
     estimated scf accuracy    <       0.00235690 Ry

     iteration # 13     ecut=    30.00 Ry     beta= 0.40
     Davidson diagonalization with overlap
     ethr =  3.68E-07,  avg # of iterations =  2.0

     negative rho (up, down):  4.831E-01 0.000E+00

     total cpu time spent up to now is      284.6 secs

     total energy              =   -7397.26129641 Ry
     estimated scf accuracy    <       0.00241634 Ry

     iteration # 14     ecut=    30.00 Ry     beta= 0.40
     Davidson diagonalization with overlap
     ethr =  3.68E-07,  avg # of iterations =  3.0

     negative rho (up, down):  4.551E-01 0.000E+00

     total cpu time spent up to now is      304.2 secs

     total energy              =   -7397.28039955 Ry
     estimated scf accuracy    <       0.00652672 Ry

     iteration # 15     ecut=    30.00 Ry     beta= 0.40
     Davidson diagonalization with overlap
     ethr =  3.68E-07,  avg # of iterations =  2.0

     negative rho (up, down):  5.157E-01 0.000E+00

     total cpu time spent up to now is      323.6 secs

     total energy              =   -7397.28378246 Ry
     estimated scf accuracy    <       0.00534619 Ry

     iteration # 16     ecut=    30.00 Ry     beta= 0.40
     Davidson diagonalization with overlap
     ethr =  3.68E-07,  avg # of iterations =  2.0

     negative rho (up, down):  5.668E-01 0.000E+00

     total cpu time spent up to now is      342.9 secs

     total energy              =   -7397.28878307 Ry
     estimated scf accuracy    <       0.00067860 Ry

     iteration # 17     ecut=    30.00 Ry     beta= 0.40
     Davidson diagonalization with overlap
     ethr =  1.06E-07,  avg # of iterations =  2.0

     negative rho (up, down):  6.148E-01 0.000E+00

     total cpu time spent up to now is      362.4 secs

     total energy              =   -7397.29451470 Ry
     estimated scf accuracy    <       0.00032418 Ry

     iteration # 18     ecut=    30.00 Ry     beta= 0.40
     Davidson diagonalization with overlap
     ethr =  5.07E-08,  avg # of iterations =  3.0

     negative rho (up, down):  6.669E-01 0.000E+00

     total cpu time spent up to now is      382.2 secs

     total energy              =   -7397.29901453 Ry
     estimated scf accuracy    <       0.00052233 Ry

     iteration # 19     ecut=    30.00 Ry     beta= 0.40
     Davidson diagonalization with overlap
     ethr =  5.07E-08,  avg # of iterations =  5.0

     negative rho (up, down):  7.542E-01 0.000E+00

     total cpu time spent up to now is      402.1 secs

     total energy              =   -7397.29400053 Ry
     estimated scf accuracy    <       0.00152922 Ry

     iteration # 20     ecut=    30.00 Ry     beta= 0.40
     Davidson diagonalization with overlap
     ethr =  5.07E-08,  avg # of iterations =  5.0

     negative rho (up, down):  8.161E-01 0.000E+00

     total cpu time spent up to now is      421.9 secs

     total energy              =   -7397.29298187 Ry
     estimated scf accuracy    <       0.00349595 Ry

     iteration # 21     ecut=    30.00 Ry     beta= 0.40
     Davidson diagonalization with overlap
     ethr =  5.07E-08,  avg # of iterations =  5.0

     negative rho (up, down):  8.516E-01 0.000E+00

     total cpu time spent up to now is      441.8 secs

     total energy              =   -7397.29769706 Ry
     estimated scf accuracy    <       0.00410171 Ry

     iteration # 22     ecut=    30.00 Ry     beta= 0.40
     Davidson diagonalization with overlap
     ethr =  5.07E-08,  avg # of iterations =  3.0

     negative rho (up, down):  8.948E-01 0.000E+00

     total cpu time spent up to now is      461.5 secs

     total energy              =   -7397.29951198 Ry
     estimated scf accuracy    <       0.00339313 Ry

     iteration # 23     ecut=    30.00 Ry     beta= 0.40
     Davidson diagonalization with overlap
     ethr =  5.07E-08,  avg # of iterations =  2.0

     negative rho (up, down):  9.648E-01 0.000E+00

     total cpu time spent up to now is      481.1 secs

     total energy              =   -7397.29237611 Ry
     estimated scf accuracy    <       0.00315408 Ry

     iteration # 24     ecut=    30.00 Ry     beta= 0.40
     Davidson diagonalization with overlap
     ethr =  5.07E-08,  avg # of iterations =  5.0

     negative rho (up, down):  9.998E-01 0.000E+00

     total cpu time spent up to now is      501.1 secs

     total energy              =   -7397.29307052 Ry
     estimated scf accuracy    <       0.00446807 Ry

     iteration # 25     ecut=    30.00 Ry     beta= 0.40
     Davidson diagonalization with overlap
     ethr =  5.07E-08,  avg # of iterations =  2.0

     negative rho (up, down):  1.028E+00 0.000E+00

     total cpu time spent up to now is      520.6 secs

     total energy              =   -7397.29452186 Ry
     estimated scf accuracy    <       0.00447648 Ry

     iteration # 26     ecut=    30.00 Ry     beta= 0.40
     Davidson diagonalization with overlap
     ethr =  5.07E-08,  avg # of iterations =  2.0

     negative rho (up, down):  1.054E+00 0.000E+00

     total cpu time spent up to now is      540.0 secs

     total energy              =   -7397.29630009 Ry
     estimated scf accuracy    <       0.00413018 Ry

     iteration # 27     ecut=    30.00 Ry     beta= 0.40
     Davidson diagonalization with overlap
     ethr =  5.07E-08,  avg # of iterations =  2.0

     negative rho (up, down):  1.047E+00 0.000E+00

     total cpu time spent up to now is      559.4 secs

     total energy              =   -7397.30779909 Ry
     estimated scf accuracy    <       0.00381149 Ry

     iteration # 28     ecut=    30.00 Ry     beta= 0.40
     Davidson diagonalization with overlap
     ethr =  5.07E-08,  avg # of iterations =  6.0

     negative rho (up, down):  1.075E+00 0.000E+00

     total cpu time spent up to now is      579.9 secs

     total energy              =   -7397.30868659 Ry
     estimated scf accuracy    <       0.00058966 Ry

     iteration # 29     ecut=    30.00 Ry     beta= 0.40
     Davidson diagonalization with overlap
     ethr =  5.07E-08,  avg # of iterations =  5.0

     negative rho (up, down):  1.081E+00 0.000E+00

     total cpu time spent up to now is      599.5 secs

     total energy              =   -7397.31388240 Ry
     estimated scf accuracy    <       0.00022794 Ry

     iteration # 30     ecut=    30.00 Ry     beta= 0.40
     Davidson diagonalization with overlap
     ethr =  3.56E-08,  avg # of iterations =  5.0

     negative rho (up, down):  1.104E+00 0.000E+00

     total cpu time spent up to now is      619.3 secs

     total energy              =   -7397.31410643 Ry
     estimated scf accuracy    <       0.00014568 Ry

     iteration # 31     ecut=    30.00 Ry     beta= 0.40
     Davidson diagonalization with overlap
     ethr =  2.28E-08,  avg # of iterations =  2.0

     negative rho (up, down):  1.124E+00 0.000E+00

     total cpu time spent up to now is      638.9 secs

     total energy              =   -7397.31429776 Ry
     estimated scf accuracy    <       0.00035485 Ry

     iteration # 32     ecut=    30.00 Ry     beta= 0.40
     Davidson diagonalization with overlap
     ethr =  2.28E-08,  avg # of iterations =  2.0

     negative rho (up, down):  1.143E+00 0.000E+00

     total cpu time spent up to now is      658.3 secs

     total energy              =   -7397.31433341 Ry
     estimated scf accuracy    <       0.00036897 Ry

     iteration # 33     ecut=    30.00 Ry     beta= 0.40
     Davidson diagonalization with overlap
     ethr =  2.28E-08,  avg # of iterations =  2.0

     negative rho (up, down):  1.160E+00 0.000E+00

     total cpu time spent up to now is      677.6 secs

     total energy              =   -7397.31462714 Ry
     estimated scf accuracy    <       0.00040219 Ry

     iteration # 34     ecut=    30.00 Ry     beta= 0.40
     Davidson diagonalization with overlap
     ethr =  2.28E-08,  avg # of iterations =  2.0

     negative rho (up, down):  1.176E+00 0.000E+00

     total cpu time spent up to now is      697.0 secs

     total energy              =   -7397.31360390 Ry
     estimated scf accuracy    <       0.00033815 Ry

     iteration # 35     ecut=    30.00 Ry     beta= 0.40
     Davidson diagonalization with overlap
     ethr =  2.28E-08,  avg # of iterations =  2.0

     negative rho (up, down):  1.187E+00 0.000E+00

     total cpu time spent up to now is      716.4 secs

     total energy              =   -7397.31430729 Ry
     estimated scf accuracy    <       0.00058567 Ry

     iteration # 36     ecut=    30.00 Ry     beta= 0.40
     Davidson diagonalization with overlap
     ethr =  2.28E-08,  avg # of iterations =  2.0

     negative rho (up, down):  1.196E+00 0.000E+00

     total cpu time spent up to now is      735.7 secs

     total energy              =   -7397.31510881 Ry
     estimated scf accuracy    <       0.00044312 Ry

     iteration # 37     ecut=    30.00 Ry     beta= 0.40
     Davidson diagonalization with overlap
     ethr =  2.28E-08,  avg # of iterations =  2.0

     negative rho (up, down):  1.207E+00 0.000E+00

     total cpu time spent up to now is      755.0 secs

     total energy              =   -7397.31500315 Ry
     estimated scf accuracy    <       0.00026215 Ry

     iteration # 38     ecut=    30.00 Ry     beta= 0.40
     Davidson diagonalization with overlap
     ethr =  2.28E-08,  avg # of iterations =  2.0

     negative rho (up, down):  1.216E+00 0.000E+00

     total cpu time spent up to now is      774.4 secs

     total energy              =   -7397.31486506 Ry
     estimated scf accuracy    <       0.00029483 Ry

     iteration # 39     ecut=    30.00 Ry     beta= 0.40
     Davidson diagonalization with overlap
     ethr =  2.28E-08,  avg # of iterations =  2.0

     negative rho (up, down):  1.227E+00 0.000E+00

     total cpu time spent up to now is      793.6 secs

     total energy              =   -7397.31392970 Ry
     estimated scf accuracy    <       0.00032702 Ry

     iteration # 40     ecut=    30.00 Ry     beta= 0.40
     Davidson diagonalization with overlap
     ethr =  2.28E-08,  avg # of iterations =  2.0

     negative rho (up, down):  1.234E+00 0.000E+00

     total cpu time spent up to now is      812.8 secs

     total energy              =   -7397.31371779 Ry
     estimated scf accuracy    <       0.00049425 Ry

     iteration # 41     ecut=    30.00 Ry     beta= 0.40
     Davidson diagonalization with overlap
     ethr =  2.28E-08,  avg # of iterations =  2.0

     negative rho (up, down):  1.243E+00 0.000E+00

     total cpu time spent up to now is      832.0 secs

     total energy              =   -7397.31273734 Ry
     estimated scf accuracy    <       0.00052502 Ry

     iteration # 42     ecut=    30.00 Ry     beta= 0.40
     Davidson diagonalization with overlap
     ethr =  2.28E-08,  avg # of iterations =  2.0

     negative rho (up, down):  1.242E+00 0.000E+00

     total cpu time spent up to now is      851.4 secs

     total energy              =   -7397.31495908 Ry
     estimated scf accuracy    <       0.00067595 Ry

     iteration # 43     ecut=    30.00 Ry     beta= 0.40
     Davidson diagonalization with overlap
     ethr =  2.28E-08,  avg # of iterations =  2.0

     negative rho (up, down):  1.245E+00 0.000E+00

     total cpu time spent up to now is      870.8 secs

     total energy              =   -7397.31585571 Ry
     estimated scf accuracy    <       0.00030769 Ry

     iteration # 44     ecut=    30.00 Ry     beta= 0.40
     Davidson diagonalization with overlap
     ethr =  2.28E-08,  avg # of iterations =  2.0

     negative rho (up, down):  1.250E+00 0.000E+00

     total cpu time spent up to now is      890.2 secs

     total energy              =   -7397.31573082 Ry
     estimated scf accuracy    <       0.00012097 Ry

     iteration # 45     ecut=    30.00 Ry     beta= 0.40
     Davidson diagonalization with overlap
     ethr =  1.89E-08,  avg # of iterations =  2.0

     negative rho (up, down):  1.254E+00 0.000E+00

     total cpu time spent up to now is      909.8 secs

     total energy              =   -7397.31570860 Ry
     estimated scf accuracy    <       0.00014638 Ry

     iteration # 46     ecut=    30.00 Ry     beta= 0.40
     Davidson diagonalization with overlap
     ethr =  1.89E-08,  avg # of iterations =  2.0

     negative rho (up, down):  1.257E+00 0.000E+00

     total cpu time spent up to now is      929.2 secs

     total energy              =   -7397.31609280 Ry
     estimated scf accuracy    <       0.00014994 Ry

     iteration # 47     ecut=    30.00 Ry     beta= 0.40
     Davidson diagonalization with overlap
     ethr =  1.89E-08,  avg # of iterations =  2.0

     negative rho (up, down):  1.260E+00 0.000E+00

     total cpu time spent up to now is      948.6 secs

     total energy              =   -7397.31608708 Ry
     estimated scf accuracy    <       0.00006654 Ry

     iteration # 48     ecut=    30.00 Ry     beta= 0.40
     Davidson diagonalization with overlap
     ethr =  1.04E-08,  avg # of iterations =  2.0

     negative rho (up, down):  1.263E+00 0.000E+00

     total cpu time spent up to now is      968.0 secs

     total energy              =   -7397.31597446 Ry
     estimated scf accuracy    <       0.00006844 Ry

     iteration # 49     ecut=    30.00 Ry     beta= 0.40
     Davidson diagonalization with overlap
     ethr =  1.04E-08,  avg # of iterations =  2.0

     negative rho (up, down):  1.267E+00 0.000E+00

     total cpu time spent up to now is      987.4 secs

     total energy              =   -7397.31572611 Ry
     estimated scf accuracy    <       0.00009296 Ry

     iteration # 50     ecut=    30.00 Ry     beta= 0.40
     Davidson diagonalization with overlap
     ethr =  1.04E-08,  avg # of iterations =  2.0

     negative rho (up, down):  1.268E+00 0.000E+00

     total cpu time spent up to now is     1006.8 secs

     total energy              =   -7397.31592442 Ry
     estimated scf accuracy    <       0.00013668 Ry

     iteration # 51     ecut=    30.00 Ry     beta= 0.40
     Davidson diagonalization with overlap
     ethr =  1.04E-08,  avg # of iterations =  2.0

     negative rho (up, down):  1.270E+00 0.000E+00

     total cpu time spent up to now is     1026.1 secs

     total energy              =   -7397.31591334 Ry
     estimated scf accuracy    <       0.00010010 Ry

     iteration # 52     ecut=    30.00 Ry     beta= 0.40
     Davidson diagonalization with overlap
     ethr =  1.04E-08,  avg # of iterations =  2.0

     negative rho (up, down):  1.272E+00 0.000E+00

     total cpu time spent up to now is     1045.5 secs

     total energy              =   -7397.31591565 Ry
     estimated scf accuracy    <       0.00009921 Ry

     iteration # 53     ecut=    30.00 Ry     beta= 0.40
     Davidson diagonalization with overlap
     ethr =  1.04E-08,  avg # of iterations =  2.0

     negative rho (up, down):  1.274E+00 0.000E+00

     total cpu time spent up to now is     1064.8 secs

     total energy              =   -7397.31583872 Ry
     estimated scf accuracy    <       0.00009717 Ry

     iteration # 54     ecut=    30.00 Ry     beta= 0.40
     Davidson diagonalization with overlap
     ethr =  1.04E-08,  avg # of iterations =  2.0

     negative rho (up, down):  1.276E+00 0.000E+00

     total cpu time spent up to now is     1084.1 secs

     total energy              =   -7397.31566019 Ry
     estimated scf accuracy    <       0.00010827 Ry

     iteration # 55     ecut=    30.00 Ry     beta= 0.40
     Davidson diagonalization with overlap
     ethr =  1.04E-08,  avg # of iterations =  2.0

     negative rho (up, down):  1.278E+00 0.000E+00

     total cpu time spent up to now is     1103.6 secs

     total energy              =   -7397.31515042 Ry
     estimated scf accuracy    <       0.00014358 Ry

     iteration # 56     ecut=    30.00 Ry     beta= 0.40
     Davidson diagonalization with overlap
     ethr =  1.04E-08,  avg # of iterations =  2.0

     negative rho (up, down):  1.277E+00 0.000E+00

     total cpu time spent up to now is     1123.0 secs

     total energy              =   -7397.31583890 Ry
     estimated scf accuracy    <       0.00021416 Ry

     iteration # 57     ecut=    30.00 Ry     beta= 0.40
     Davidson diagonalization with overlap
     ethr =  1.04E-08,  avg # of iterations =  2.0

     negative rho (up, down):  1.277E+00 0.000E+00

     total cpu time spent up to now is     1142.3 secs

     total energy              =   -7397.31634804 Ry
     estimated scf accuracy    <       0.00010206 Ry

     iteration # 58     ecut=    30.00 Ry     beta= 0.40
     Davidson diagonalization with overlap
     ethr =  1.04E-08,  avg # of iterations =  2.0

     negative rho (up, down):  1.278E+00 0.000E+00

     total cpu time spent up to now is     1161.5 secs

     total energy              =   -7397.31635690 Ry
     estimated scf accuracy    <       0.00000189 Ry

     iteration # 59     ecut=    30.00 Ry     beta= 0.40
     Davidson diagonalization with overlap
     ethr =  2.95E-10,  avg # of iterations =  5.0

     negative rho (up, down):  1.278E+00 0.000E+00

     total cpu time spent up to now is     1181.2 secs

     total energy              =   -7397.31635067 Ry
     estimated scf accuracy    <       0.00000390 Ry

     iteration # 60     ecut=    30.00 Ry     beta= 0.40
     Davidson diagonalization with overlap
     ethr =  2.95E-10,  avg # of iterations =  3.0

     negative rho (up, down):  1.279E+00 0.000E+00

     total cpu time spent up to now is     1200.7 secs

     total energy              =   -7397.31635944 Ry
     estimated scf accuracy    <       0.00000666 Ry

     iteration # 61     ecut=    30.00 Ry     beta= 0.40
     Davidson diagonalization with overlap
     ethr =  2.95E-10,  avg # of iterations =  2.0

     negative rho (up, down):  1.280E+00 0.000E+00

     total cpu time spent up to now is     1220.0 secs

     total energy              =   -7397.31636202 Ry
     estimated scf accuracy    <       0.00000356 Ry

     iteration # 62     ecut=    30.00 Ry     beta= 0.40
     Davidson diagonalization with overlap
     ethr =  2.95E-10,  avg # of iterations =  2.0

     negative rho (up, down):  1.281E+00 0.000E+00

     total cpu time spent up to now is     1239.3 secs

     total energy              =   -7397.31635280 Ry
     estimated scf accuracy    <       0.00000146 Ry

     iteration # 63     ecut=    30.00 Ry     beta= 0.40
     Davidson diagonalization with overlap
     ethr =  2.28E-10,  avg # of iterations =  2.0

     negative rho (up, down):  1.282E+00 0.000E+00

     total cpu time spent up to now is     1258.8 secs

     End of self-consistent calculation

          k = 0.0000 0.0000 0.0000 ( 46193 PWs)   bands (ev):

   -58.4180 -58.3256 -58.3036 -58.2917 -58.2790 -58.2662 -58.2297 -58.2140
   -58.2096 -58.2006 -58.1949 -58.1922 -58.1841 -58.1778 -58.1761 -58.1697
   -58.1556 -58.1504 -58.1468 -58.1424 -58.1393 -58.1389 -58.1359 -58.1277
   -58.1235 -58.1216 -58.1192 -58.1176 -58.1145 -58.1061 -58.1002 -58.0845
   -34.8178 -34.7995 -34.7572 -34.7311 -34.7071 -34.6901 -34.6817 -34.6727
   -34.6619 -34.6441 -34.6397 -34.6363 -34.6305 -34.6215 -34.6178 -34.6158
   -34.6101 -34.6077 -34.5946 -34.5844 -34.5728 -34.5676 -34.5567 -34.5497
   -34.5464 -34.5417 -34.5296 -34.5209 -34.5179 -34.5146 -34.5095 -34.5034
   -34.4989 -34.4926 -34.4890 -34.4860 -34.4774 -34.4728 -34.4627 -34.4575
   -34.4515 -34.4461 -34.4457 -34.4398 -34.4370 -34.4326 -34.4290 -34.4253
   -34.4203 -34.4175 -34.4102 -34.4081 -34.4055 -34.4022 -34.3991 -34.3930
   -34.3911 -34.3827 -34.3804 -34.3734 -34.3682 -34.3655 -34.3605 -34.3574
   -34.3524 -34.3496 -34.3454 -34.3425 -34.3396 -34.3356 -34.3338 -34.3310
   -34.3291 -34.3254 -34.3229 -34.3201 -34.3100 -34.3077 -34.3035 -34.2994
   -34.2956 -34.2919 -34.2807 -34.2710 -34.2676 -34.2538 -34.2503 -34.2435
   -34.2399 -34.2340 -34.2297 -34.2211 -34.2163 -34.2071 -34.1966 -34.1813
   -18.7133 -18.5760 -18.4915 -18.4815 -18.4690 -18.4319 -18.4084 -18.3954
   -18.3702 -18.3642 -18.3538 -18.3086 -18.3061 -18.2899 -18.2859 -18.2526
   -18.2416 -18.2269 -18.2088 -18.2041 -18.1938 -18.1776 -18.1755 -18.1507
   -18.1404 -18.1264 -18.1238 -18.0963 -18.0937 -17.8767 -17.7548 -17.7062
   -11.3284 -10.9542 -10.9321 -10.9279 -10.7936 -10.7846 -10.7297 -10.2987
   -10.2331 -10.0881 -10.0191  -9.9890  -9.9812  -9.8967  -9.8857  -9.8708
    -6.3165  -6.3116  -6.3074  -5.8349  -5.5747  -5.5568  -5.5425  -5.5185
    -5.5173  -5.5119  -5.3846  -5.3775  -5.3731  -5.3696  -5.3336  -5.3293
    -5.3141  -5.3047  -5.2842  -5.2515  -5.2480  -5.2416  -5.2182  -5.1708
    -5.1479  -5.0741  -5.0494  -5.0383  -5.0065  -5.0029  -4.9797  -4.9742
    -4.9603  -4.9248  -4.9173  -4.9086  -4.8840  -4.8376  -4.8351  -4.8124
    -4.8106  -4.8055  -4.7495  -4.7399  -4.6760  -4.5260  -4.5221  -4.5121
    -4.4963  -4.4894  -4.4612  -4.4427  -4.4295  -4.4141  -4.4127  -4.4068
    -4.3992  -4.3960  -4.3897  -4.3862  -4.3651  -4.3334  -4.3125  -4.3053
    -4.2767  -4.2682  -4.2609  -4.2541  -4.2437  -4.2432  -4.2370  -4.2272
    -4.2073  -4.1898  -4.1477  -4.1380  -4.0834  -4.0459  -4.0146  -4.0016
    -3.9910  -3.9382  -3.9245  -3.9148  -3.9001  -3.8633  -3.8566  -3.8192
    -3.7815  -3.7748  -3.7223  -3.7089  -3.6933  -3.6782  -3.5989  -3.5797
    -3.4572  -3.4254  -3.3899  -2.9887  -2.9451  -2.9384  -2.9166  -2.8870
    -2.8771  -2.8346  -2.7984  -2.7856  -2.7215  -2.7090  -2.6969  -2.6811
    -2.6645  -2.6412  -2.6328  -2.6295  -2.6223  -2.5846  -2.5367  -2.4334
    -2.4166  -2.3905  -2.3392  -1.8027  -1.7950  -1.7842  -1.6511  -1.6259
    -1.5653  -1.5579  -1.4764  -1.4319  -1.4269  -1.4020  -1.3708  -1.3307
    -1.3178  -1.2808  -1.2234  -1.2054  -1.1701  -1.0553  -0.0315  -0.0209
     0.1373   0.1968   0.2259   0.5725   0.6139   0.6260   0.6910   0.7310
     0.7548   0.8231   0.8292   1.0771   1.1256   1.1471   1.1686   1.1709
     1.1964   1.5694   1.5753   1.5798   1.5984   1.6150   1.6257   1.6603
     1.6874   1.6977   1.7157   1.7494   1.7562   1.7844   1.7935   1.8202
     1.8536   1.8638   1.8807   1.9385   1.9534   1.9597   1.9830   1.9904
     1.9941   1.9999   2.0166   2.0240   2.0373   2.0511   2.0604   2.2802
     2.2940   2.3039   2.3229   2.3807   2.4148   2.4178   2.4251   2.4380
     2.4557   2.4630   2.4646   2.4833   2.4922   2.5064   2.5128   2.5293

     the Fermi energy is     0.0695 ev

!    total energy              =   -7397.31636007 Ry
     estimated scf accuracy    <       0.00000010 Ry
     smearing contrib. (-TS)   =       0.00096569 Ry
     internal energy E=F+TS    =   -7397.31732576 Ry

     The total energy is F=E-TS. E is the sum of the following terms:
     one-electron contribution =  -36133.28211755 Ry
     hartree contribution      =   18113.24186730 Ry
     xc contribution           =    -872.23876198 Ry
     ewald contribution        =   13903.62135948 Ry
     one-center paw contrib.   =   -2408.65967301 Ry

     convergence has been achieved in  63 iterations

     negative rho (up, down):  1.282E+00 0.000E+00

     Forces acting on atoms (cartesian axes, Ry/au):

     atom    1 type  1   force =     0.01071145    0.00252126   -0.00024969
     atom    2 type  1   force =     0.00387377    0.00337021    0.00040576
     atom    3 type  1   force =    -0.02605674   -0.00226673    0.00717795
     atom    4 type  1   force =    -0.00222804    0.00259503    0.00109622
     atom    5 type  1   force =     0.03265950    0.00908089    0.00922598
     atom    6 type  1   force =     0.01559321    0.01519516    0.00075446
     atom    7 type  1   force =     0.00629364   -0.00010147   -0.00065072
     atom    8 type  1   force =     0.00161123   -0.03386338    0.00987501
     atom    9 type  1   force =    -0.00634535    0.00035155   -0.00301746
     atom   10 type  1   force =    -0.00028569   -0.00766649   -0.00129811
     atom   11 type  1   force =     0.00646234   -0.00203304    0.00022289
     atom   12 type  1   force =    -0.00664190   -0.00958323   -0.00293914
     atom   13 type  1   force =    -0.00070568   -0.00238184   -0.00305484
     atom   14 type  1   force =    -0.01260443   -0.00183254   -0.00629056
     atom   15 type  1   force =    -0.01982720    0.01542074   -0.00028685
     atom   16 type  1   force =     0.00168573    0.00095009   -0.00227329
     atom   17 type  2   force =    -0.00877803   -0.00523889    0.01511830
     atom   18 type  2   force =    -0.00154371   -0.00663288   -0.01083234
     atom   19 type  2   force =     0.00722830    0.00584491    0.01158100
     atom   20 type  2   force =    -0.00375127    0.01900054    0.01475486
     atom   21 type  2   force =     0.02649021   -0.01582716   -0.03369278
     atom   22 type  2   force =     0.00526243   -0.00564808   -0.00671603
     atom   23 type  2   force =     0.02026814   -0.00572523    0.01214620
     atom   24 type  2   force =     0.00040570   -0.00271733   -0.01103342
     atom   25 type  2   force =    -0.02492075   -0.01532189    0.01627455
     atom   26 type  2   force =    -0.00426156    0.00548533   -0.00690289
     atom   27 type  2   force =     0.00011092    0.00058892   -0.00064589
     atom   28 type  2   force =     0.02353514    0.01422140    0.02328024
     atom   29 type  2   force =     0.00084298    0.01001370   -0.08890547
     atom   30 type  2   force =    -0.00183859    0.00758824   -0.01390177
     atom   31 type  2   force =     0.00342702    0.01599243    0.00986626
     atom   32 type  2   force =    -0.02125042   -0.00056203   -0.07037071
     atom   33 type  2   force =    -0.00244453    0.02180903   -0.03223654
     atom   34 type  2   force =     0.01239298   -0.01130650    0.01526335
     atom   35 type  2   force =     0.00963288   -0.01334310    0.00997042
     atom   36 type  2   force =    -0.00435360   -0.01435281   -0.07132246
     atom   37 type  2   force =    -0.02147513    0.00229242    0.01370678
     atom   38 type  2   force =    -0.00027680    0.00023440   -0.01173563
     atom   39 type  2   force =    -0.00860569   -0.00121626   -0.02001097
     atom   40 type  2   force =    -0.00292185    0.00015801    0.00186687
     atom   41 type  2   force =     0.00953823    0.00210998    0.01166481
     atom   42 type  2   force =     0.00839705    0.00271177   -0.00655756
     atom   43 type  2   force =    -0.00646666    0.00052468   -0.01027888
     atom   44 type  2   force =     0.00562996   -0.00276017   -0.01249279
     atom   45 type  2   force =    -0.00045076   -0.00234906    0.00215559
     atom   46 type  2   force =    -0.00970480   -0.02223180    0.01636661
     atom   47 type  2   force =     0.00024937   -0.00057508   -0.00807684
     atom   48 type  2   force =    -0.00464698    0.01345094    0.00945158
     atom   49 type  3   force =     0.01590768   -0.00913449    0.11086026
     atom   50 type  3   force =     0.00341572    0.01340097    0.11190447
     atom   51 type  3   force =    -0.01972183   -0.01810911   -0.06032410
     atom   52 type  3   force =    -0.01862726    0.01339478    0.02380658
     atom   53 type  3   force =    -0.03184211    0.01910885   -0.02879888
     atom   54 type  3   force =     0.00227198   -0.03165859   -0.02621036
     atom   55 type  3   force =    -0.00263993   -0.01283565    0.02484151
     atom   56 type  3   force =    -0.00416458   -0.00133040    0.00566742
     atom   57 type  3   force =     0.01770364    0.04148561   -0.04569129
     atom   58 type  3   force =    -0.04371220   -0.01199458   -0.04385465
     atom   59 type  3   force =     0.01572827    0.00317727    0.06571954
     atom   60 type  3   force =     0.00049334    0.03516483   -0.02305799
     atom   61 type  3   force =     0.01434450   -0.00062022    0.04378951
     atom   62 type  3   force =     0.02194275   -0.01197012   -0.02234858
     atom   63 type  3   force =    -0.00074788    0.00318017    0.02081167
     atom   64 type  3   force =     0.04406989   -0.00784219   -0.04266570
     atom   65 type  3   force =    -0.00108244    0.01312445    0.04493125
     atom   66 type  3   force =     0.01612601    0.00958702   -0.00320033
     atom   67 type  3   force =     0.00206476    0.00865387    0.01258447
     atom   68 type  3   force =    -0.00423259   -0.01283105    0.05882845
     atom   69 type  3   force =     0.00370384    0.00975606   -0.01305897
     atom   70 type  3   force =    -0.00287473    0.00196878   -0.01927783
     atom   71 type  3   force =     0.00204312   -0.00513755    0.01612801
     atom   72 type  3   force =     0.00985095   -0.00261302   -0.01470723
     atom   73 type  3   force =    -0.00654729    0.00394379    0.01968224
     atom   74 type  3   force =    -0.02568909    0.01312063    0.01099307
     atom   75 type  3   force =     0.00190089   -0.00612900    0.00296216
     atom   76 type  3   force =    -0.00385736   -0.00167799   -0.01772072
     atom   77 type  3   force =    -0.02453338   -0.02207083   -0.02252834
     atom   78 type  3   force =     0.00318044   -0.01881091    0.01986186
     atom   79 type  3   force =     0.01047473   -0.00465124    0.01148995
     atom   80 type  3   force =    -0.00486587    0.00437520    0.00213047

     Total force =     0.326162     Total SCF correction =     0.001191


     Computing stress (Cartesian axis) and pressure


     negative rho (up, down):  1.282E+00 0.000E+00
          total   stress  (Ry/bohr**3)                   (kbar)     P=     -114.11
  -0.00078217   0.00000165  -0.00000085         -115.06        0.24       -0.12
   0.00000165  -0.00078342   0.00000057            0.24     -115.25        0.08
  -0.00000085   0.00000057  -0.00076159           -0.12        0.08     -112.03


     Writing all to output data dir /root/qe_scratch/pristine_Ti2CO2.save/ :
     XML data file, charge density, pseudopotentials, collected wavefunctions
 
     init_run     :     19.93s CPU     25.33s WALL (       1 calls)
     electrons    :   1017.39s CPU   1232.95s WALL (       1 calls)
     forces       :      1.56s CPU      1.62s WALL (       1 calls)
     stress       :      2.54s CPU      2.57s WALL (       1 calls)

     Called by init_run:
     wfcinit      :      0.82s CPU      1.04s WALL (       1 calls)
     potinit      :     17.99s CPU     22.70s WALL (       1 calls)
     hinit0       :      0.56s CPU      0.67s WALL (       1 calls)

     Called by electrons:
     c_bands      :    100.10s CPU    100.27s WALL (      63 calls)
     sum_band     :     12.16s CPU     12.20s WALL (      63 calls)
     v_of_rho     :      5.50s CPU      7.07s WALL (      64 calls)
     newd         :     19.70s CPU     19.85s WALL (      64 calls)
                                       19.85s GPU  (      64 calls)
     PAW_pot      :    879.94s CPU   1094.81s WALL (      64 calls)
     mix_rho      :      4.00s CPU      4.17s WALL (      63 calls)

     Called by c_bands:
     init_us_2    :      0.36s CPU      0.37s WALL (     127 calls)
     cegterg      :     98.72s CPU     98.82s WALL (      63 calls)

     Called by *egterg:
     cdiaghg      :      8.80s CPU      8.83s WALL (     291 calls)
                                        8.83s GPU  (     291 calls)
     h_psi        :     37.49s CPU     37.75s WALL (     292 calls)
                                       37.73s GPU  (     292 calls)
     s_psi        :      0.77s CPU      0.78s WALL (     292 calls)
     g_psi        :      0.00s CPU      0.14s WALL (     228 calls)
                                        0.14s GPU  (     228 calls)

     Called by h_psi:
     h_psi:calbec :      0.08s CPU     12.04s WALL (     292 calls)
                                       12.04s GPU  (     292 calls)
     vloc_psi     :     13.68s CPU     13.74s WALL (     292 calls)
                                       13.74s GPU  (     292 calls)
     add_vuspsi   :      0.79s CPU     11.87s WALL (     292 calls)
                                       11.87s GPU  (     292 calls)

     General routines
     calbec       :      0.08s CPU      0.27s WALL (     360 calls)
     fft          :      7.36s CPU      9.59s WALL (     855 calls)
                                        0.17s GPU  (     791 calls)
     ffts         :      3.96s CPU      5.06s WALL (     127 calls)
                                        0.01s GPU  (      63 calls)
     fftw         :      0.13s CPU     13.74s WALL (    9032 calls)
                                       13.71s GPU  (    9032 calls)
     interpolate  :     11.94s CPU     15.16s WALL (      64 calls)
 
     Parallel routines
 
     PWSCF        :  17m22.15s CPU  21m 3.54s WALL

 
   This run was terminated on:   9:54:32   6May2026            

=------------------------------------------------------------------------------=
   JOB DONE.
=------------------------------------------------------------------------------=
Warning: ieee_invalid is signaling
Warning: ieee_divide_by_zero is signaling
Warning: ieee_underflow is signaling
Warning: ieee_inexact is signaling
FORTRAN STOP
