--------------------------------------------------------------------------
WARNING: Open MPI tried to bind a process but failed.  This is a
warning only; your job will continue, though performance may
be degraded.

  Local host:        3253031b5b37
  Application name:  /root/qe-7.3.1/bin/pw.x
  Error message:     failed to bind memory
  Location:          ../../../../../orte/mca/rtc/hwloc/rtc_hwloc.c:447

--------------------------------------------------------------------------

     Program PWSCF v.7.3.1 starts on  6May2026 at  9: 3:27 

     This program is part of the open-source Quantum ESPRESSO suite
     for quantum simulation of materials; please cite
         "P. Giannozzi et al., J. Phys.:Condens. Matter 21 395502 (2009);
         "P. Giannozzi et al., J. Phys.:Condens. Matter 29 465901 (2017);
         "P. Giannozzi et al., J. Chem. Phys. 152 154105 (2020);
          URL http://www.quantum-espresso.org", 
     in publications or presentations arising from this work. More details at
     http://www.quantum-espresso.org/quote

     Parallel version (MPI & OpenMP), running on       8 processor cores
     Number of MPI processes:                 1
     Threads/MPI process:                     8

     MPI processes distributed on     1 nodes
     87218 MiB available memory on the printing compute node when the environment starts
 
     Reading input from pristine_MoSe2.in

     Current dimensions of program PWSCF are:
     Max number of different atomic species (ntypx) = 10
     Max number of k-points (npk) =  40000
     Max angular momentum in pseudopotentials (lmaxx) =  4
     file Mo.UPF: wavefunction(s)  4S 4D renormalized
     Message from routine setup:
     using ibrav=0 with symmetry is DISCOURAGED, use correct ibrav instead
 
     Subspace diagonalization in iterative solution of the eigenvalue problem:
     a serial algorithm will be used

 
     G-vector sticks info
     --------------------
     sticks:   dense  smooth     PW     G-vecs:    dense   smooth      PW
     Sum        7813    5197   1285               770679   419581   52441
 
     Using Slab Decomposition
 


     bravais-lattice index     =            0
     lattice parameter (alat)  =      25.0937  a.u.
     unit-cell volume          =   18897.7908 (a.u.)^3
     number of atoms/cell      =           48
     number of atomic types    =            2
     number of electrons       =       416.00
     number of Kohn-Sham states=          250
     kinetic-energy cutoff     =      30.0000  Ry
     charge density cutoff     =     180.0000  Ry
     scf convergence threshold =      1.0E-07
     mixing beta               =       0.4000
     number of iterations used =            8  plain     mixing
     Exchange-correlation= PBE
                           (   1   4   3   4   0   0   0)

     GPU acceleration is ACTIVE.  1 visible GPUs per MPI rank


     celldm(1)=  25.093665  celldm(2)=   0.000000  celldm(3)=   0.000000
     celldm(4)=   0.000000  celldm(5)=   0.000000  celldm(6)=   0.000000

     crystal axes: (cart. coord. in units of alat)
               a(1) = (   1.000000   0.000000   0.000000 )  
               a(2) = (  -0.500000   0.866025   0.000000 )  
               a(3) = (   0.000000   0.000000   1.380982 )  

     reciprocal axes: (cart. coord. in units 2 pi/alat)
               b(1) = (  1.000000  0.577350 -0.000000 )  
               b(2) = (  0.000000  1.154701  0.000000 )  
               b(3) = (  0.000000 -0.000000  0.724122 )  


     PseudoPot. # 1 for Mo read from file:
     /root/qe_pseudos/Mo.UPF
     MD5 check sum: 4396e0c640fcce5c25f020efccf1ab12
     Pseudo is Projector augmented-wave + core cor, Zval = 14.0
     Generated using &quot;atomic&quot; code by A. Dal Corso  v.6.3
     Shape of augmentation charge: PSQ
     Using radial grid of 1229 points,  6 beta functions with: 
                l(1) =   0
                l(2) =   0
                l(3) =   1
                l(4) =   1
                l(5) =   2
                l(6) =   2
     Q(r) pseudized with 0 coefficients 


     PseudoPot. # 2 for Se read from file:
     /root/qe_pseudos/Se.UPF
     MD5 check sum: 8e2a6847b5cb9faee9497ebb573e71ea
     Pseudo is Ultrasoft + core correction, Zval =  6.0
     Generated using &quot;atomic&quot; code by A. Dal Corso  v.6.3
     Using radial grid of 1211 points,  4 beta functions with: 
                l(1) =   0
                l(2) =   0
                l(3) =   1
                l(4) =   1
     Q(r) pseudized with 0 coefficients 


     atomic species   valence    mass     pseudopotential
     Mo               14.00    95.95000     Mo( 1.00)
     Se                6.00    78.97100     Se( 1.00)

      6 Sym. Ops. (no inversion) found ( 5 have fractional translation)



   Cartesian axes

     site n.     atom                  positions (alat units)
         1        Mo     tau(   1) = (   0.0022158   0.0002492   0.6907385  )
         2        Mo     tau(   2) = (   0.3750001   0.6497776   0.6909388  )
         3        Mo     tau(   3) = (   0.5002240   0.4328834   0.6909387  )
         4        Mo     tau(   4) = (   0.6241079   0.2144630   0.6907385  )
         5        Mo     tau(   5) = (   0.7477843   0.0002491   0.6907384  )
         6        Mo     tau(   6) = (   0.1248286   0.6496180   0.6902900  )
         7        Mo     tau(   7) = (   0.2497762   0.4328834   0.6909387  )
         8        Mo     tau(   8) = (   0.3750000   0.2163083   0.6902899  )
         9        Mo     tau(   9) = (  -0.1249999   0.6496869   0.6907740  )
        10        Mo     tau(  10) = (  -0.0013236   0.4348070   0.6907382  )
        11        Mo     tau(  11) = (   0.1258921   0.2144627   0.6907383  )
        12        Mo     tau(  12) = (   0.2501455  -0.0000840   0.6907740  )
        13        Mo     tau(  13) = (   0.4998547  -0.0000839   0.6907739  )
        14        Mo     tau(  14) = (  -0.2486765   0.4348069   0.6907386  )
        15        Mo     tau(  15) = (  -0.1250008   0.2165066   0.6975200  )
        16        Mo     tau(  16) = (  -0.3748284   0.6496180   0.6902900  )
        17        Se     tau(  17) = (   0.2495533   0.2887950   0.5646524  )
        18        Se     tau(  18) = (   0.5009181   0.7210300   0.8162647  )
        19        Se     tau(  19) = (   0.1254002   0.0719377   0.8174432  )
        20        Se     tau(  20) = (   0.6251196   0.5047346   0.5646524  )
        21        Se     tau(  21) = (   0.6248892   0.5063054   0.8162646  )
        22        Se     tau(  22) = (   0.1254066   0.0719339   0.5641391  )
        23        Se     tau(  23) = (   0.7530485   0.2869152   0.5689772  )
        24        Se     tau(  24) = (   0.7396170   0.2946697   0.8244678  )
        25        Se     tau(  25) = (   0.3750001   0.0721903   0.5645813  )
        26        Se     tau(  26) = (   0.8749999   0.0756896   0.5689774  )
        27        Se     tau(  27) = (   0.8750000   0.0601813   0.8244661  )
        28        Se     tau(  28) = (   0.0103809   0.2946685   0.8244648  )
        29        Se     tau(  29) = (   0.2503275   0.7220148   0.5646525  )
        30        Se     tau(  30) = (   0.2490822   0.7210301   0.8162646  )
        31        Se     tau(  31) = (  -0.0030492   0.2869146   0.5689773  )
        32        Se     tau(  32) = (   0.3750001   0.5051815   0.5653112  )
        33        Se     tau(  33) = (   0.3750001   0.5051814   0.8167018  )
        34        Se     tau(  34) = (  -0.2500185   0.7216770   0.5645814  )
        35        Se     tau(  35) = (   0.5004469   0.2887950   0.5646523  )
        36        Se     tau(  36) = (   0.4989713   0.2882090   0.8162645  )
        37        Se     tau(  37) = (  -0.1249999   0.5056434   0.8174432  )
        38        Se     tau(  38) = (   0.6245936   0.0719340   0.5641391  )
        39        Se     tau(  39) = (   0.6246001   0.0719378   0.8174432  )
        40        Se     tau(  40) = (   0.4996728   0.7220147   0.5646526  )
        41        Se     tau(  41) = (   0.0000188   0.7216770   0.5645814  )
        42        Se     tau(  42) = (  -0.0001662   0.7217839   0.8165905  )
        43        Se     tau(  43) = (  -0.1250000   0.5056509   0.5641391  )
        44        Se     tau(  44) = (   0.1248807   0.5047347   0.5646524  )
        45        Se     tau(  45) = (   0.1251108   0.5063052   0.8162645  )
        46        Se     tau(  46) = (  -0.2498334   0.7217839   0.8165905  )
        47        Se     tau(  47) = (   0.2510286   0.2882090   0.8162645  )
        48        Se     tau(  48) = (   0.3750002   0.0719766   0.8165905  )

     number of k points=     1  Methfessel-Paxton smearing, width (Ry)=  0.0100
                       cart. coord. in units 2pi/alat
        k(    1) = (   0.0000000   0.0000000   0.0000000), wk =   2.0000000

     Dense  grid:   770679 G-vectors     FFT dimensions: ( 108, 108, 150)

     Smooth grid:   419581 G-vectors     FFT dimensions: (  96,  96, 125)

     Estimated max dynamical RAM per process >       4.29 GB

     Check: negative core charge=   -0.000001

     Initial potential from superposition of free atoms

     starting charge     415.9835, renormalised to     416.0000

     negative rho (up, down):  5.241E-02 0.000E+00
     Starting wfcs are  288 randomized atomic wfcs
     Checking if some PAW data can be deallocated... 

     total cpu time spent up to now is       16.5 secs

     Self-consistent Calculation

     iteration #  1     ecut=    30.00 Ry     beta= 0.40
     Davidson diagonalization with overlap
     ethr =  1.00E-02,  avg # of iterations =  2.0

     Threshold (ethr) on eigenvalues was too large:
     Diagonalizing with lowered threshold

     Davidson diagonalization with overlap
     ethr =  5.85E-04,  avg # of iterations =  2.0

     negative rho (up, down):  5.754E-02 0.000E+00

     total cpu time spent up to now is       26.0 secs

     total energy              =   -6489.49575094 Ry
     estimated scf accuracy    <       2.73395424 Ry

     iteration #  2     ecut=    30.00 Ry     beta= 0.40
     Davidson diagonalization with overlap
     ethr =  6.57E-04,  avg # of iterations =  5.0

     negative rho (up, down):  5.970E-02 0.000E+00

     total cpu time spent up to now is       34.7 secs

     total energy              =   -6489.67324865 Ry
     estimated scf accuracy    <       5.21939689 Ry

     iteration #  3     ecut=    30.00 Ry     beta= 0.40
     Davidson diagonalization with overlap
     ethr =  6.57E-04,  avg # of iterations =  4.0

     negative rho (up, down):  6.125E-02 0.000E+00

     total cpu time spent up to now is       43.3 secs

     total energy              =   -6490.32392479 Ry
     estimated scf accuracy    <       0.12396448 Ry

     iteration #  4     ecut=    30.00 Ry     beta= 0.40
     Davidson diagonalization with overlap
     ethr =  2.98E-05,  avg # of iterations = 15.0

     negative rho (up, down):  6.228E-02 0.000E+00

     total cpu time spent up to now is       52.6 secs

     total energy              =   -6490.31795021 Ry
     estimated scf accuracy    <       0.65242825 Ry

     iteration #  5     ecut=    30.00 Ry     beta= 0.40
     Davidson diagonalization with overlap
     ethr =  2.98E-05,  avg # of iterations =  7.0

     negative rho (up, down):  6.286E-02 0.000E+00

     total cpu time spent up to now is       61.2 secs

     total energy              =   -6490.35352159 Ry
     estimated scf accuracy    <       0.05765990 Ry

     iteration #  6     ecut=    30.00 Ry     beta= 0.40
     Davidson diagonalization with overlap
     ethr =  1.39E-05,  avg # of iterations =  4.0

     negative rho (up, down):  6.322E-02 0.000E+00

     total cpu time spent up to now is       69.8 secs

     total energy              =   -6490.36397363 Ry
     estimated scf accuracy    <       0.04052778 Ry

     iteration #  7     ecut=    30.00 Ry     beta= 0.40
     Davidson diagonalization with overlap
     ethr =  9.74E-06,  avg # of iterations =  3.0

     negative rho (up, down):  6.342E-02 0.000E+00

     total cpu time spent up to now is       78.2 secs

     total energy              =   -6490.36550644 Ry
     estimated scf accuracy    <       0.02781694 Ry

     iteration #  8     ecut=    30.00 Ry     beta= 0.40
     Davidson diagonalization with overlap
     ethr =  6.69E-06,  avg # of iterations =  1.0

     negative rho (up, down):  6.354E-02 0.000E+00

     total cpu time spent up to now is       86.5 secs

     total energy              =   -6490.36461959 Ry
     estimated scf accuracy    <       0.01319722 Ry

     iteration #  9     ecut=    30.00 Ry     beta= 0.40
     Davidson diagonalization with overlap
     ethr =  3.17E-06,  avg # of iterations =  2.0

     negative rho (up, down):  6.360E-02 0.000E+00

     total cpu time spent up to now is       94.9 secs

     total energy              =   -6490.36531062 Ry
     estimated scf accuracy    <       0.00127150 Ry

     iteration # 10     ecut=    30.00 Ry     beta= 0.40
     Davidson diagonalization with overlap
     ethr =  3.06E-07,  avg # of iterations =  6.0

     negative rho (up, down):  6.363E-02 0.000E+00

     total cpu time spent up to now is      103.6 secs

     total energy              =   -6490.36563175 Ry
     estimated scf accuracy    <       0.00039622 Ry

     iteration # 11     ecut=    30.00 Ry     beta= 0.40
     Davidson diagonalization with overlap
     ethr =  9.52E-08,  avg # of iterations =  2.0

     negative rho (up, down):  6.364E-02 0.000E+00

     total cpu time spent up to now is      112.0 secs

     total energy              =   -6490.36564276 Ry
     estimated scf accuracy    <       0.00020740 Ry

     iteration # 12     ecut=    30.00 Ry     beta= 0.40
     Davidson diagonalization with overlap
     ethr =  4.99E-08,  avg # of iterations =  2.0

     negative rho (up, down):  6.365E-02 0.000E+00

     total cpu time spent up to now is      120.4 secs

     total energy              =   -6490.36564784 Ry
     estimated scf accuracy    <       0.00003138 Ry

     iteration # 13     ecut=    30.00 Ry     beta= 0.40
     Davidson diagonalization with overlap
     ethr =  7.54E-09,  avg # of iterations =  5.0

     negative rho (up, down):  6.365E-02 0.000E+00

     total cpu time spent up to now is      129.0 secs

     total energy              =   -6490.36565744 Ry
     estimated scf accuracy    <       0.00004296 Ry

     iteration # 14     ecut=    30.00 Ry     beta= 0.40
     Davidson diagonalization with overlap
     ethr =  7.54E-09,  avg # of iterations =  2.0

     negative rho (up, down):  6.366E-02 0.000E+00

     total cpu time spent up to now is      137.4 secs

     total energy              =   -6490.36565823 Ry
     estimated scf accuracy    <       0.00001954 Ry

     iteration # 15     ecut=    30.00 Ry     beta= 0.40
     Davidson diagonalization with overlap
     ethr =  4.70E-09,  avg # of iterations =  2.0

     negative rho (up, down):  6.366E-02 0.000E+00

     total cpu time spent up to now is      145.9 secs

     total energy              =   -6490.36565720 Ry
     estimated scf accuracy    <       0.00000795 Ry

     iteration # 16     ecut=    30.00 Ry     beta= 0.40
     Davidson diagonalization with overlap
     ethr =  1.91E-09,  avg # of iterations =  4.0

     negative rho (up, down):  6.366E-02 0.000E+00

     total cpu time spent up to now is      154.4 secs

     total energy              =   -6490.36565831 Ry
     estimated scf accuracy    <       0.00000016 Ry

     iteration # 17     ecut=    30.00 Ry     beta= 0.40
     Davidson diagonalization with overlap
     ethr =  3.84E-11,  avg # of iterations =  5.0

     negative rho (up, down):  6.366E-02 0.000E+00

     total cpu time spent up to now is      163.1 secs

     total energy              =   -6490.36565836 Ry
     estimated scf accuracy    <       0.00000012 Ry

     iteration # 18     ecut=    30.00 Ry     beta= 0.40
     Davidson diagonalization with overlap
     ethr =  2.95E-11,  avg # of iterations =  3.0

     negative rho (up, down):  6.366E-02 0.000E+00

     total cpu time spent up to now is      171.6 secs

     total energy              =   -6490.36565836 Ry
     estimated scf accuracy    <       0.00000015 Ry

     iteration # 19     ecut=    30.00 Ry     beta= 0.40
     Davidson diagonalization with overlap
     ethr =  2.95E-11,  avg # of iterations =  2.0

     negative rho (up, down):  6.367E-02 0.000E+00

     total cpu time spent up to now is      179.9 secs

     End of self-consistent calculation

          k = 0.0000 0.0000 0.0000 ( 52441 PWs)   bands (ev):

   -61.0302 -61.0128 -61.0035 -61.0034 -61.0012 -60.9987 -60.9986 -60.9931
   -60.9929 -60.9923 -60.9897 -60.9874 -60.9874 -60.9852 -60.9832 -60.9831
   -35.1985 -35.1880 -35.1879 -35.1563 -35.1563 -35.1470 -35.1462 -35.1429
   -35.1429 -35.1167 -35.0934 -35.0923 -35.0922 -35.0898 -35.0897 -35.0862
   -35.0830 -35.0829 -35.0807 -35.0772 -35.0772 -35.0713 -35.0712 -35.0690
   -35.0678 -35.0672 -35.0672 -35.0665 -35.0642 -35.0625 -35.0624 -35.0610
   -35.0610 -35.0605 -35.0539 -35.0495 -35.0495 -35.0159 -35.0159 -35.0086
   -34.9938 -34.9871 -34.9871 -34.9847 -34.9846 -34.9778 -34.9591 -34.9590
   -14.0652 -13.3381 -13.3381 -13.3285 -13.3259 -13.3259 -13.2600 -13.0850
   -12.6916 -12.6914 -12.6867 -12.6866 -12.6841 -12.6149 -12.3935 -12.3860
   -12.3859 -12.3693 -12.3669 -12.3669 -12.3158 -12.3129 -12.3127 -12.1795
   -12.1772 -12.1771 -12.1613 -12.1558 -12.1557 -12.0962 -12.0549 -12.0546
    -5.5062  -5.5053  -5.5053  -5.2915  -4.8115  -4.7828  -4.7828  -4.7659
    -4.7659  -4.7490  -4.6308  -4.6308  -4.6177  -4.5701  -4.5700  -4.5539
    -4.5354  -4.5352  -4.4974  -4.4714  -4.4582  -4.4581  -4.3908  -4.3835
    -4.3835  -3.7070  -3.7059  -3.7059  -3.5540  -3.5439  -3.5439  -3.5280
    -3.5231  -3.5231  -3.4488  -3.4488  -3.4257  -3.4219  -3.3888  -3.3887
    -3.2537  -3.2537  -3.2370  -3.2049  -3.2049  -3.1473  -3.0714  -3.0506
    -3.0505  -2.9947  -2.9946  -2.9166  -2.7242  -2.7241  -2.7024  -2.6774
    -2.6774  -2.6004  -2.5647  -2.5646  -2.5586  -2.0270  -2.0088  -2.0088
    -1.9434  -1.9434  -1.9340  -1.8853  -1.8852  -1.8614  -1.7872  -1.7872
    -1.7762  -1.6028  -1.6028  -1.5905  -1.5517  -1.5516  -1.5247  -1.3095
    -1.3095  -1.3000  -1.2999  -1.2903  -1.2764  -1.2587  -1.2587  -1.2527
    -1.2478  -1.2245  -1.2244  -0.9976  -0.9976  -0.6909  -0.6909  -0.6780
    -0.6772  -0.6772  -0.6548  -0.5989  -0.5984  -0.5983  -0.5702  -0.5333
    -0.5333  -0.3205  -0.3141  -0.3140  -0.2517  -0.2516  -0.2435  -0.1816
     1.8186   1.8186   1.8941   1.9033   1.9033   1.9273   1.9374   1.9374
     1.9710   1.9719   1.9720   1.9747   2.0475   2.0475   2.0782   2.2503
     2.3036   2.3036   2.3477   2.3477   2.3671   2.4195   2.4274   2.4274
     2.4999   2.5024   2.5024   2.5294   2.5327   2.5328   2.5880   2.6170
     2.6171   2.6375   2.6376   2.6565   2.7313   2.7314   2.7706   2.7707
     2.7744   2.7745

     the Fermi energy is     1.0167 ev

!    total energy              =   -6490.36565834 Ry
     estimated scf accuracy    <       0.00000004 Ry
     smearing contrib. (-TS)   =       0.00000000 Ry
     internal energy E=F+TS    =   -6490.36565834 Ry

     The total energy is F=E-TS. E is the sum of the following terms:
     one-electron contribution =  -13990.21352878 Ry
     hartree contribution      =    7034.71172248 Ry
     xc contribution           =    -517.59585112 Ry
     ewald contribution        =    4619.98111476 Ry
     one-center paw contrib.   =   -3637.24911567 Ry

     convergence has been achieved in  19 iterations

     negative rho (up, down):  6.367E-02 0.000E+00

     Forces acting on atoms (cartesian axes, Ry/au):

     atom    1 type  1   force =    -0.02185138   -0.00854541    0.01404137
     atom    2 type  1   force =    -0.00000000   -0.00044996   -0.00195051
     atom    3 type  1   force =    -0.00038968    0.00022498   -0.00195051
     atom    4 type  1   force =     0.00352515    0.02319656    0.01404137
     atom    5 type  1   force =     0.02185138   -0.00854541    0.01404137
     atom    6 type  1   force =    -0.00010219    0.00005900   -0.00204805
     atom    7 type  1   force =     0.00038968    0.00022498   -0.00195051
     atom    8 type  1   force =    -0.00000000   -0.00011800   -0.00204805
     atom    9 type  1   force =     0.00000000   -0.00187944   -0.00107576
     atom   10 type  1   force =     0.01832623   -0.01465115    0.01404137
     atom   11 type  1   force =    -0.00352515    0.02319656    0.01404137
     atom   12 type  1   force =    -0.00162764    0.00093972   -0.00107576
     atom   13 type  1   force =     0.00162764    0.00093972   -0.00107576
     atom   14 type  1   force =    -0.01832623   -0.01465115    0.01404137
     atom   15 type  1   force =     0.00000000    0.00000000    0.04666414
     atom   16 type  1   force =     0.00010219    0.00005900   -0.00204805
     atom   17 type  2   force =    -0.00031675   -0.00220987   -0.00037717
     atom   18 type  2   force =     0.00028590    0.00014206   -0.00010607
     atom   19 type  2   force =     0.00329185   -0.00190055   -0.00074663
     atom   20 type  2   force =     0.00207218    0.00083062   -0.00037717
     atom   21 type  2   force =     0.00026598    0.00017656   -0.00010607
     atom   22 type  2   force =     0.00136065   -0.00078557   -0.00272471
     atom   23 type  2   force =    -0.00517292    0.00298658    0.00105002
     atom   24 type  2   force =     0.03790054   -0.02188189   -0.03454448
     atom   25 type  2   force =    -0.00000000   -0.00116016   -0.00055618
     atom   26 type  2   force =     0.00000000   -0.00597317    0.00105002
     atom   27 type  2   force =     0.00000000    0.04376377   -0.03454448
     atom   28 type  2   force =    -0.03790054   -0.02188189   -0.03454448
     atom   29 type  2   force =    -0.00175542    0.00137925   -0.00037717
     atom   30 type  2   force =    -0.00028590    0.00014206   -0.00010607
     atom   31 type  2   force =     0.00517292    0.00298658    0.00105002
     atom   32 type  2   force =     0.00000000    0.00000000   -0.00090863
     atom   33 type  2   force =    -0.00000000   -0.00000000    0.00032087
     atom   34 type  2   force =     0.00100473    0.00058008   -0.00055618
     atom   35 type  2   force =     0.00031675   -0.00220987   -0.00037717
     atom   36 type  2   force =    -0.00001992   -0.00031863   -0.00010607
     atom   37 type  2   force =     0.00000000    0.00380110   -0.00074663
     atom   38 type  2   force =    -0.00136065   -0.00078557   -0.00272471
     atom   39 type  2   force =    -0.00329185   -0.00190055   -0.00074663
     atom   40 type  2   force =     0.00175542    0.00137925   -0.00037717
     atom   41 type  2   force =    -0.00100473    0.00058008   -0.00055618
     atom   42 type  2   force =     0.00084477   -0.00048773    0.00012124
     atom   43 type  2   force =    -0.00000000    0.00157114   -0.00272471
     atom   44 type  2   force =    -0.00207218    0.00083062   -0.00037717
     atom   45 type  2   force =    -0.00026598    0.00017656   -0.00010607
     atom   46 type  2   force =    -0.00084477   -0.00048773    0.00012124
     atom   47 type  2   force =     0.00001992   -0.00031863   -0.00010607
     atom   48 type  2   force =     0.00000000    0.00097546    0.00012124

     Total force =     0.127488     Total SCF correction =     0.000804


     Computing stress (Cartesian axis) and pressure


     negative rho (up, down):  6.367E-02 0.000E+00
          total   stress  (Ry/bohr**3)                   (kbar)     P=      -39.10
  -0.00025969  -0.00000000   0.00000000          -38.20       -0.00        0.00
  -0.00000000  -0.00025969   0.00000000           -0.00      -38.20        0.00
   0.00000000   0.00000000  -0.00027804            0.00        0.00      -40.90


     Writing all to output data dir /root/qe_scratch/pristine_MoSe2.save/ :
     XML data file, charge density, pseudopotentials, collected wavefunctions
 
     init_run     :     12.58s CPU     15.99s WALL (       1 calls)
     electrons    :    137.54s CPU    163.47s WALL (       1 calls)
     forces       :      1.42s CPU      1.48s WALL (       1 calls)
     stress       :      1.43s CPU      1.48s WALL (       1 calls)

     Called by init_run:
     wfcinit      :      0.45s CPU      0.61s WALL (       1 calls)
     potinit      :     11.01s CPU     13.80s WALL (       1 calls)
     hinit0       :      0.46s CPU      0.57s WALL (       1 calls)

     Called by electrons:
     c_bands      :     17.51s CPU     17.54s WALL (      20 calls)
     sum_band     :      3.85s CPU      3.87s WALL (      20 calls)
     v_of_rho     :      1.72s CPU      2.30s WALL (      20 calls)
     newd         :      6.99s CPU      7.03s WALL (      20 calls)
                                        7.03s GPU  (      20 calls)
     PAW_pot      :    109.04s CPU    134.80s WALL (      20 calls)
     mix_rho      :      1.17s CPU      1.23s WALL (      20 calls)

     Called by c_bands:
     init_us_2    :      0.08s CPU      0.08s WALL (      41 calls)
     cegterg      :     17.22s CPU     17.25s WALL (      20 calls)

     Called by *egterg:
     cdiaghg      :      1.62s CPU      1.65s WALL (      97 calls)
                                        1.65s GPU  (      97 calls)
     h_psi        :      7.74s CPU      7.90s WALL (      99 calls)
                                        7.90s GPU  (      99 calls)
     s_psi        :      0.19s CPU      0.19s WALL (      99 calls)
     g_psi        :      0.00s CPU      0.03s WALL (      78 calls)
                                        0.03s GPU  (      78 calls)

     Called by h_psi:
     h_psi:calbec :      0.12s CPU      2.04s WALL (      99 calls)
                                        2.04s GPU  (      99 calls)
     vloc_psi     :      3.91s CPU      3.93s WALL (      99 calls)
                                        3.93s GPU  (      99 calls)
     add_vuspsi   :      0.18s CPU      1.90s WALL (      99 calls)
                                        1.90s GPU  (      99 calls)

     General routines
     calbec       :      0.12s CPU      0.26s WALL (     124 calls)
     fft          :      4.35s CPU      5.66s WALL (     284 calls)
                                        0.07s GPU  (     264 calls)
     ffts         :      3.25s CPU      4.14s WALL (      40 calls)
                                        0.00s GPU  (      20 calls)
     fftw         :      0.04s CPU      3.99s WALL (    1908 calls)
                                        3.99s GPU  (    1908 calls)
     interpolate  :      7.82s CPU      9.99s WALL (      20 calls)
 
     Parallel routines
 
     PWSCF        :   2m33.66s CPU   3m 3.40s WALL

 
   This run was terminated on:   9: 6:31   6May2026            

=------------------------------------------------------------------------------=
   JOB DONE.
=------------------------------------------------------------------------------=
Warning: ieee_invalid is signaling
Warning: ieee_divide_by_zero is signaling
Warning: ieee_inexact is signaling
FORTRAN STOP
