--------------------------------------------------------------------------
WARNING: Open MPI tried to bind a process but failed.  This is a
warning only; your job will continue, though performance may
be degraded.

  Local host:        3253031b5b37
  Application name:  /root/qe-7.3.1/bin/pw.x
  Error message:     failed to bind memory
  Location:          ../../../../../orte/mca/rtc/hwloc/rtc_hwloc.c:447

--------------------------------------------------------------------------

     Program PWSCF v.7.3.1 starts on  6May2026 at  9:29:17 

     This program is part of the open-source Quantum ESPRESSO suite
     for quantum simulation of materials; please cite
         "P. Giannozzi et al., J. Phys.:Condens. Matter 21 395502 (2009);
         "P. Giannozzi et al., J. Phys.:Condens. Matter 29 465901 (2017);
         "P. Giannozzi et al., J. Chem. Phys. 152 154105 (2020);
          URL http://www.quantum-espresso.org", 
     in publications or presentations arising from this work. More details at
     http://www.quantum-espresso.org/quote

     Parallel version (MPI & OpenMP), running on       8 processor cores
     Number of MPI processes:                 1
     Threads/MPI process:                     8

     MPI processes distributed on     1 nodes
     86041 MiB available memory on the printing compute node when the environment starts
 
     Reading input from pristine_TaS2.in

     Current dimensions of program PWSCF are:
     Max number of different atomic species (ntypx) = 10
     Max number of k-points (npk) =  40000
     Max angular momentum in pseudopotentials (lmaxx) =  4
     file S.UPF: wavefunction(s)  3S 3P renormalized
     file Ta.UPF: wavefunction(s)  6S 5P 5D renormalized
 
     Subspace diagonalization in iterative solution of the eigenvalue problem:
     a serial algorithm will be used

 
     G-vector sticks info
     --------------------
     sticks:   dense  smooth     PW     G-vecs:    dense   smooth      PW
     Sum        4543    3049    757               443143   241367   30179
 
     Using Slab Decomposition
 


     bravais-lattice index     =            0
     lattice parameter (alat)  =      19.1703  a.u.
     unit-cell volume          =   10861.2256 (a.u.)^3
     number of atoms/cell      =           27
     number of atomic types    =            2
     number of electrons       =       225.00
     number of Kohn-Sham states=          136
     kinetic-energy cutoff     =      30.0000  Ry
     charge density cutoff     =     180.0000  Ry
     scf convergence threshold =      1.0E-07
     mixing beta               =       0.4000
     number of iterations used =            8  plain     mixing
     Exchange-correlation= SLA  PW   PBX  PBC
                           (   1   4   3   4   0   0   0)

     GPU acceleration is ACTIVE.  1 visible GPUs per MPI rank


     celldm(1)=  19.170297  celldm(2)=   0.000000  celldm(3)=   0.000000
     celldm(4)=   0.000000  celldm(5)=   0.000000  celldm(6)=   0.000000

     crystal axes: (cart. coord. in units of alat)
               a(1) = (   1.000000   0.000000   0.000000 )  
               a(2) = (  -0.500000   0.866025   0.000000 )  
               a(3) = (   0.000000   0.000000   1.780171 )  

     reciprocal axes: (cart. coord. in units 2 pi/alat)
               b(1) = (  1.000000  0.577350 -0.000000 )  
               b(2) = (  0.000000  1.154701  0.000000 )  
               b(3) = (  0.000000 -0.000000  0.561744 )  


     PseudoPot. # 1 for S  read from file:
     /root/qe_pseudos/S.UPF
     MD5 check sum: fb45dfebcf3e72a4e1bd4a866ec2e262
     Pseudo is Projector augmented-wave + core cor, Zval =  6.0
     Generated using &quot;atomic&quot; code by A. Dal Corso  v.6.3
     Shape of augmentation charge: PSQ
     Using radial grid of 1151 points,  6 beta functions with: 
                l(1) =   0
                l(2) =   0
                l(3) =   1
                l(4) =   1
                l(5) =   2
                l(6) =   2
     Q(r) pseudized with 0 coefficients 


     PseudoPot. # 2 for Ta read from file:
     /root/qe_pseudos/Ta.UPF
     MD5 check sum: 70e26a4a8c1f0430003df9f0e8af0a92
     Pseudo is Projector augmented-wave + core cor, Zval = 13.0
     Generated using &quot;atomic&quot; code by A. Dal Corso  v.6.3
     Shape of augmentation charge: PSQ
     Using radial grid of 1273 points,  6 beta functions with: 
                l(1) =   0
                l(2) =   0
                l(3) =   1
                l(4) =   1
                l(5) =   2
                l(6) =   2
     Q(r) pseudized with 0 coefficients 


     atomic species   valence    mass     pseudopotential
     S                 6.00    32.06000     S ( 1.00)
     Ta               13.00   180.94790     Ta( 1.00)

     No symmetry found



   Cartesian axes

     site n.     atom                  positions (alat units)
         1        S      tau(   1) = (   0.3321997   0.3853288   1.0428311  )
         2        S      tau(   2) = (   0.0028054   0.7691003   0.7368459  )
         3        S      tau(   3) = (   0.1660911   0.6739036   1.0438238  )
         4        S      tau(   4) = (   0.1694021   0.4827379   0.7354352  )
         5        S      tau(   5) = (   0.3317512   0.7670396   0.7349148  )
         6        S      tau(   6) = (   0.6607110   0.3857415   1.0393085  )
         7        S      tau(   7) = (   0.3278303   0.1876403   0.7411619  )
         8        S      tau(   8) = (   0.4997995   0.0936325   1.0430568  )
         9        S      tau(   9) = (   0.6655998   0.1917631   0.7388227  )
        10        S      tau(  10) = (   0.5002369   0.4776246   0.7403554  )
        11        S      tau(  11) = (  -0.1675562   0.6684203   1.0420807  )
        12        S      tau(  12) = (  -0.1658116   0.4849096   0.7390631  )
        13        S      tau(  13) = (  -0.0024776   0.3830059   1.0422072  )
        14        S      tau(  14) = (   0.5010981   0.6762324   1.0420951  )
        15        S      tau(  15) = (  -0.0009299   0.1947164   0.7398935  )
        16        S      tau(  16) = (   0.1676639   0.0963546   1.0299602  )
        17        S      tau(  17) = (  -0.3372853   0.7688734   0.7395502  )
        18        S      tau(  18) = (   0.8332850   0.0996451   1.0427494  )
        19        Ta     tau(  19) = (   0.3270758   0.5792546   0.8928593  )
        20        Ta     tau(  20) = (   0.5059271   0.2925643   0.8883415  )
        21        Ta     tau(  21) = (  -0.0113997  -0.0094592   0.8880745  )
        22        Ta     tau(  22) = (   0.0014599   0.5786903   0.8904788  )
        23        Ta     tau(  23) = (   0.1681561   0.3013603   0.8894637  )
        24        Ta     tau(  24) = (   0.3462591   0.0004086   0.8897175  )
        25        Ta     tau(  25) = (  -0.3285346   0.5806265   0.8876684  )
        26        Ta     tau(  26) = (  -0.1609996   0.2835479   0.8875367  )
        27        Ta     tau(  27) = (   0.6677215  -0.0016278   0.8910623  )

     number of k points=     1  Methfessel-Paxton smearing, width (Ry)=  0.0100
                       cart. coord. in units 2pi/alat
        k(    1) = (   0.0000000   0.0000000   0.0000000), wk =   2.0000000

     Dense  grid:   443143 G-vectors     FFT dimensions: (  81,  81, 150)

     Smooth grid:   241367 G-vectors     FFT dimensions: (  72,  72, 120)

     Estimated max dynamical RAM per process >       2.11 GB

     Check: negative core charge=   -0.000005

     Initial potential from superposition of free atoms

     starting charge     224.9918, renormalised to     225.0000

     negative rho (up, down):  3.979E-02 0.000E+00
     Starting wfcs are  162 randomized atomic wfcs
     Checking if some PAW data can be deallocated... 

     total cpu time spent up to now is       20.8 secs

     Self-consistent Calculation

     iteration #  1     ecut=    30.00 Ry     beta= 0.40
     Davidson diagonalization with overlap
     ethr =  1.00E-02,  avg # of iterations =  2.0

     Threshold (ethr) on eigenvalues was too large:
     Diagonalizing with lowered threshold

     Davidson diagonalization with overlap
     ethr =  7.59E-04,  avg # of iterations =  2.0

     negative rho (up, down):  3.893E-02 0.000E+00

     total cpu time spent up to now is       33.0 secs

     total energy              =   -7738.72620361 Ry
     estimated scf accuracy    <       1.71287679 Ry

     iteration #  2     ecut=    30.00 Ry     beta= 0.40
     Davidson diagonalization with overlap
     ethr =  7.61E-04,  avg # of iterations =  3.0

     negative rho (up, down):  3.853E-02 0.000E+00

     total cpu time spent up to now is       44.8 secs

     total energy              =   -7738.87147702 Ry
     estimated scf accuracy    <       1.50129770 Ry

     iteration #  3     ecut=    30.00 Ry     beta= 0.40
     Davidson diagonalization with overlap
     ethr =  6.67E-04,  avg # of iterations =  2.0

     negative rho (up, down):  3.828E-02 0.000E+00

     total cpu time spent up to now is       56.6 secs

     total energy              =   -7739.04969685 Ry
     estimated scf accuracy    <       0.63528734 Ry

     iteration #  4     ecut=    30.00 Ry     beta= 0.40
     Davidson diagonalization with overlap
     ethr =  2.82E-04,  avg # of iterations =  2.0

     negative rho (up, down):  3.813E-02 0.000E+00

     total cpu time spent up to now is       68.4 secs

     total energy              =   -7739.13722258 Ry
     estimated scf accuracy    <       0.13166162 Ry

     iteration #  5     ecut=    30.00 Ry     beta= 0.40
     Davidson diagonalization with overlap
     ethr =  5.85E-05,  avg # of iterations =  2.0

     negative rho (up, down):  3.797E-02 0.000E+00

     total cpu time spent up to now is       80.1 secs

     total energy              =   -7739.14499345 Ry
     estimated scf accuracy    <       0.05327687 Ry

     iteration #  6     ecut=    30.00 Ry     beta= 0.40
     Davidson diagonalization with overlap
     ethr =  2.37E-05,  avg # of iterations =  2.0

     negative rho (up, down):  3.788E-02 0.000E+00

     total cpu time spent up to now is       92.0 secs

     total energy              =   -7739.15006974 Ry
     estimated scf accuracy    <       0.02455775 Ry

     iteration #  7     ecut=    30.00 Ry     beta= 0.40
     Davidson diagonalization with overlap
     ethr =  1.09E-05,  avg # of iterations = 16.0

     negative rho (up, down):  3.783E-02 0.000E+00

     total cpu time spent up to now is      104.6 secs

     total energy              =   -7739.15159039 Ry
     estimated scf accuracy    <       0.01073405 Ry

     iteration #  8     ecut=    30.00 Ry     beta= 0.40
     Davidson diagonalization with overlap
     ethr =  4.77E-06,  avg # of iterations = 13.0

     negative rho (up, down):  3.780E-02 0.000E+00

     total cpu time spent up to now is      116.9 secs

     total energy              =   -7739.15265087 Ry
     estimated scf accuracy    <       0.00398927 Ry

     iteration #  9     ecut=    30.00 Ry     beta= 0.40
     Davidson diagonalization with overlap
     ethr =  1.77E-06,  avg # of iterations =  3.0

     negative rho (up, down):  3.779E-02 0.000E+00

     total cpu time spent up to now is      128.8 secs

     total energy              =   -7739.15285745 Ry
     estimated scf accuracy    <       0.00096084 Ry

     iteration # 10     ecut=    30.00 Ry     beta= 0.40
     Davidson diagonalization with overlap
     ethr =  4.27E-07,  avg # of iterations =  2.0

     negative rho (up, down):  3.777E-02 0.000E+00

     total cpu time spent up to now is      140.5 secs

     total energy              =   -7739.15295831 Ry
     estimated scf accuracy    <       0.00030777 Ry

     iteration # 11     ecut=    30.00 Ry     beta= 0.40
     Davidson diagonalization with overlap
     ethr =  1.37E-07,  avg # of iterations =  2.0

     negative rho (up, down):  3.775E-02 0.000E+00

     total cpu time spent up to now is      152.3 secs

     total energy              =   -7739.15299737 Ry
     estimated scf accuracy    <       0.00004742 Ry

     iteration # 12     ecut=    30.00 Ry     beta= 0.40
     Davidson diagonalization with overlap
     ethr =  2.11E-08,  avg # of iterations =  3.0

     negative rho (up, down):  3.775E-02 0.000E+00

     total cpu time spent up to now is      164.1 secs

     total energy              =   -7739.15300198 Ry
     estimated scf accuracy    <       0.00002846 Ry

     iteration # 13     ecut=    30.00 Ry     beta= 0.40
     Davidson diagonalization with overlap
     ethr =  1.26E-08,  avg # of iterations =  2.0

     negative rho (up, down):  3.774E-02 0.000E+00

     total cpu time spent up to now is      176.0 secs

     total energy              =   -7739.15300473 Ry
     estimated scf accuracy    <       0.00001333 Ry

     iteration # 14     ecut=    30.00 Ry     beta= 0.40
     Davidson diagonalization with overlap
     ethr =  5.92E-09,  avg # of iterations =  2.0

     negative rho (up, down):  3.773E-02 0.000E+00

     total cpu time spent up to now is      187.8 secs

     total energy              =   -7739.15300625 Ry
     estimated scf accuracy    <       0.00000245 Ry

     iteration # 15     ecut=    30.00 Ry     beta= 0.40
     Davidson diagonalization with overlap
     ethr =  1.09E-09,  avg # of iterations =  2.0

     negative rho (up, down):  3.773E-02 0.000E+00

     total cpu time spent up to now is      199.7 secs

     total energy              =   -7739.15300651 Ry
     estimated scf accuracy    <       0.00000104 Ry

     iteration # 16     ecut=    30.00 Ry     beta= 0.40
     Davidson diagonalization with overlap
     ethr =  4.60E-10,  avg # of iterations =  2.0

     negative rho (up, down):  3.773E-02 0.000E+00

     total cpu time spent up to now is      211.4 secs

     total energy              =   -7739.15300658 Ry
     estimated scf accuracy    <       0.00000025 Ry

     iteration # 17     ecut=    30.00 Ry     beta= 0.40
     Davidson diagonalization with overlap
     ethr =  1.10E-10,  avg # of iterations =  3.0

     negative rho (up, down):  3.773E-02 0.000E+00

     total cpu time spent up to now is      223.3 secs

     total energy              =   -7739.15300659 Ry
     estimated scf accuracy    <       0.00000029 Ry

     iteration # 18     ecut=    30.00 Ry     beta= 0.40
     Davidson diagonalization with overlap
     ethr =  1.10E-10,  avg # of iterations =  2.0

     negative rho (up, down):  3.773E-02 0.000E+00

     total cpu time spent up to now is      235.1 secs

     total energy              =   -7739.15300662 Ry
     estimated scf accuracy    <       0.00000022 Ry

     iteration # 19     ecut=    30.00 Ry     beta= 0.40
     Davidson diagonalization with overlap
     ethr =  9.61E-11,  avg # of iterations =  1.0

     negative rho (up, down):  3.772E-02 0.000E+00

     total cpu time spent up to now is      246.9 secs

     End of self-consistent calculation

          k = 0.0000 0.0000 0.0000 ( 30179 PWs)   bands (ev):

   -69.2655 -69.2169 -69.1644 -69.1536 -69.1246 -69.0963 -69.0001 -68.9914
   -68.9366 -35.7010 -35.6664 -35.6341 -35.6048 -35.5903 -35.5728 -35.5593
   -35.5435 -35.5201 -35.5104 -35.5035 -35.4980 -35.4591 -35.4567 -35.4475
   -35.4429 -35.4322 -35.3793 -35.3707 -35.3466 -35.3403 -35.3126 -35.2895
   -35.2847 -35.2696 -35.2570 -35.2203 -14.7167 -13.5924 -13.5507 -13.5356
   -13.5220 -13.5079 -13.4490 -13.2593 -13.1184 -13.0894 -13.0655 -13.0449
   -13.0206 -12.9644 -12.8476 -12.8302 -12.8202 -12.5964  -6.2224  -5.8389
    -5.8246  -5.8034  -5.7938  -5.7739  -5.7129  -5.4907  -5.4660  -5.2942
    -5.2605  -5.2492  -5.2341  -5.0872  -5.0783  -5.0328  -4.9730  -4.9426
    -4.9087  -4.4656  -4.4361  -4.4253  -4.4036  -4.3853  -4.3270  -3.8877
    -3.8680  -3.8487  -3.7659  -3.7560  -3.7296  -3.6956  -3.6837  -3.6249
    -3.6232  -3.6068  -3.5852  -3.4714  -3.4650  -2.7696  -2.6790  -2.6526
    -2.6322  -2.5998  -2.5793  -2.3387  -2.2629  -2.2172  -2.1983  -2.1061
    -2.0568  -2.0196  -1.1401  -1.0583  -0.9469  -0.9239  -0.8872  -0.8526
    -0.6245  -0.6055   0.0971   0.1149   0.3149   1.1502   1.1606   1.3857
     1.4569   1.5156   1.5408   1.7214   1.7586   1.7929   1.8748   1.9659
     1.9900   2.0443   2.0966   2.1316   2.2367   2.3782   2.4689   3.7886

     the Fermi energy is    -0.6647 ev

!    total energy              =   -7739.15300661 Ry
     total all-electron energy =   -295261.331652 Ry
     estimated scf accuracy    <       0.00000003 Ry
     smearing contrib. (-TS)   =      -0.00078909 Ry
     internal energy E=F+TS    =   -7739.15221752 Ry

     The total energy is F=E-TS. E is the sum of the following terms:
     one-electron contribution =   -6986.78692589 Ry
     hartree contribution      =    3511.84047130 Ry
     xc contribution           =    -457.73085859 Ry
     ewald contribution        =    2332.33299726 Ry
     one-center paw contrib.   =   -6138.80790161 Ry

     convergence has been achieved in  19 iterations

     negative rho (up, down):  3.772E-02 0.000E+00

     Forces acting on atoms (cartesian axes, Ry/au):

     atom    1 type  1   force =    -0.00375735    0.00570428   -0.00405912
     atom    2 type  1   force =     0.00942984   -0.00287848    0.00277163
     atom    3 type  1   force =     0.00264935    0.00178547   -0.00103016
     atom    4 type  1   force =     0.01015239    0.00127373    0.00316429
     atom    5 type  1   force =     0.00620654    0.00367401    0.00128520
     atom    6 type  1   force =    -0.01358953   -0.00022374   -0.00963774
     atom    7 type  1   force =    -0.00838487   -0.01221940    0.00246733
     atom    8 type  1   force =    -0.00185291   -0.00834074   -0.00419151
     atom    9 type  1   force =    -0.00364893    0.00234962   -0.00054975
     atom   10 type  1   force =    -0.00019118   -0.00967922    0.00037675
     atom   11 type  1   force =    -0.00498142   -0.01296321   -0.00619626
     atom   12 type  1   force =    -0.00034175    0.00787095    0.00002329
     atom   13 type  1   force =    -0.00113763   -0.00586072   -0.00169411
     atom   14 type  1   force =     0.00643333    0.01138104   -0.00845641
     atom   15 type  1   force =    -0.00452360    0.01082263    0.00349177
     atom   16 type  1   force =     0.01318728    0.00395902   -0.00004033
     atom   17 type  1   force =    -0.00480993   -0.00697076   -0.00076541
     atom   18 type  1   force =     0.00627116    0.00789307   -0.00433013
     atom   19 type  2   force =    -0.01757634    0.00084754   -0.00125469
     atom   20 type  2   force =     0.01683485    0.00974533    0.00325465
     atom   21 type  2   force =    -0.00255387   -0.01088330    0.00871670
     atom   22 type  2   force =    -0.00015288    0.00818627   -0.00682518
     atom   23 type  2   force =    -0.00355291   -0.01933053    0.00820156
     atom   24 type  2   force =    -0.01295132    0.02830638    0.01361157
     atom   25 type  2   force =     0.00988169    0.00862752    0.00580551
     atom   26 type  2   force =     0.00969721   -0.01445445    0.00148521
     atom   27 type  2   force =    -0.00673722   -0.00862234   -0.00562464

     Total force =     0.073796     Total SCF correction =     0.000546


     Computing stress (Cartesian axis) and pressure


     negative rho (up, down):  3.772E-02 0.000E+00
          total   stress  (Ry/bohr**3)                   (kbar)     P=      -26.73
  -0.00017725   0.00000622  -0.00000068          -26.07        0.92       -0.10
   0.00000622  -0.00018202   0.00000221            0.92      -26.78        0.33
  -0.00000068   0.00000221  -0.00018595           -0.10        0.33      -27.35


     Writing all to output data dir /root/qe_scratch/pristine_TaS2.save/ :
     XML data file, charge density, pseudopotentials, collected wavefunctions
 
     init_run     :     15.53s CPU     20.18s WALL (       1 calls)
     electrons    :    184.56s CPU    226.07s WALL (       1 calls)
     forces       :      0.27s CPU      0.32s WALL (       1 calls)
     stress       :      0.68s CPU      0.72s WALL (       1 calls)

     Called by init_run:
     wfcinit      :      0.22s CPU      0.41s WALL (       1 calls)
     potinit      :     14.69s CPU     18.93s WALL (       1 calls)
     hinit0       :      0.40s CPU      0.45s WALL (       1 calls)

     Called by electrons:
     c_bands      :      6.09s CPU      6.12s WALL (      20 calls)
     sum_band     :      1.52s CPU      1.53s WALL (      20 calls)
     v_of_rho     :      1.50s CPU      1.99s WALL (      20 calls)
     newd         :      0.86s CPU      0.96s WALL (      20 calls)
                                        0.96s GPU  (      20 calls)
     PAW_pot      :    180.74s CPU    223.22s WALL (      20 calls)
     mix_rho      :      0.67s CPU      0.71s WALL (      20 calls)

     Called by c_bands:
     init_us_2    :      0.04s CPU      0.05s WALL (      41 calls)
     cegterg      :      5.94s CPU      5.95s WALL (      20 calls)

     Called by *egterg:
     cdiaghg      :      0.72s CPU      0.74s WALL (      87 calls)
                                        0.74s GPU  (      87 calls)
     h_psi        :      2.29s CPU      2.47s WALL (      89 calls)
                                        2.47s GPU  (      89 calls)
     s_psi        :      0.09s CPU      0.09s WALL (      89 calls)
     g_psi        :      0.00s CPU      0.01s WALL (      68 calls)
                                        0.01s GPU  (      68 calls)

     Called by h_psi:
     h_psi:calbec :      0.09s CPU      0.83s WALL (      89 calls)
                                        0.83s GPU  (      89 calls)
     vloc_psi     :      1.01s CPU      1.03s WALL (      89 calls)
                                        1.03s GPU  (      89 calls)
     add_vuspsi   :      0.09s CPU      0.61s WALL (      89 calls)
                                        0.61s GPU  (      89 calls)

     General routines
     calbec       :      0.09s CPU      0.26s WALL (     114 calls)
     fft          :      5.36s CPU      7.49s WALL (     284 calls)
                                        0.04s GPU  (     264 calls)
     ffts         :      2.00s CPU      2.50s WALL (      40 calls)
                                        0.00s GPU  (      20 calls)
     fftw         :      0.02s CPU      1.01s WALL (    1056 calls)
                                        1.01s GPU  (    1056 calls)
     interpolate  :      7.46s CPU     10.07s WALL (      20 calls)
 
     Parallel routines
 
     PWSCF        :   3m21.80s CPU   4m 8.20s WALL

 
   This run was terminated on:   9:33:26   6May2026            

=------------------------------------------------------------------------------=
   JOB DONE.
=------------------------------------------------------------------------------=
Warning: ieee_invalid is signaling
Warning: ieee_divide_by_zero is signaling
Warning: ieee_inexact is signaling
FORTRAN STOP
