--------------------------------------------------------------------------
WARNING: Open MPI tried to bind a process but failed.  This is a
warning only; your job will continue, though performance may
be degraded.

  Local host:        3253031b5b37
  Application name:  /root/qe-7.3.1/bin/pw.x
  Error message:     failed to bind memory
  Location:          ../../../../../orte/mca/rtc/hwloc/rtc_hwloc.c:447

--------------------------------------------------------------------------

     Program PWSCF v.7.3.1 starts on  6May2026 at  9:25:18 

     This program is part of the open-source Quantum ESPRESSO suite
     for quantum simulation of materials; please cite
         "P. Giannozzi et al., J. Phys.:Condens. Matter 21 395502 (2009);
         "P. Giannozzi et al., J. Phys.:Condens. Matter 29 465901 (2017);
         "P. Giannozzi et al., J. Chem. Phys. 152 154105 (2020);
          URL http://www.quantum-espresso.org", 
     in publications or presentations arising from this work. More details at
     http://www.quantum-espresso.org/quote

     Parallel version (MPI & OpenMP), running on       8 processor cores
     Number of MPI processes:                 1
     Threads/MPI process:                     8

     MPI processes distributed on     1 nodes
     86399 MiB available memory on the printing compute node when the environment starts
 
     Reading input from pristine_Sn2.in

     Current dimensions of program PWSCF are:
     Max number of different atomic species (ntypx) = 10
     Max number of k-points (npk) =  40000
     Max angular momentum in pseudopotentials (lmaxx) =  4
     file Sn.UPF: wavefunction(s)  5S 4D renormalized
     Message from routine setup:
     using ibrav=0 with symmetry is DISCOURAGED, use correct ibrav instead
 
     Subspace diagonalization in iterative solution of the eigenvalue problem:
     a serial algorithm will be used

 
     G-vector sticks info
     --------------------
     sticks:   dense  smooth     PW     G-vecs:    dense   smooth      PW
     Sum        8689    5809   1453               711639   387101   48303
 
     Using Slab Decomposition
 


     bravais-lattice index     =            0
     lattice parameter (alat)  =      26.4830  a.u.
     unit-cell volume          =   17446.4074 (a.u.)^3
     number of atoms/cell      =           18
     number of atomic types    =            1
     number of electrons       =       252.00
     number of Kohn-Sham states=          151
     kinetic-energy cutoff     =      30.0000  Ry
     charge density cutoff     =     180.0000  Ry
     scf convergence threshold =      1.0E-07
     mixing beta               =       0.4000
     number of iterations used =            8  plain     mixing
     Exchange-correlation= PBE
                           (   1   4   3   4   0   0   0)

     GPU acceleration is ACTIVE.  1 visible GPUs per MPI rank


     celldm(1)=  26.482957  celldm(2)=   0.000000  celldm(3)=   0.000000
     celldm(4)=   0.000000  celldm(5)=   0.000000  celldm(6)=   0.000000

     crystal axes: (cart. coord. in units of alat)
               a(1) = (   1.000000   0.000000   0.000000 )  
               a(2) = (  -0.500000   0.866025   0.000000 )  
               a(3) = (   0.000000   0.000000   1.084616 )  

     reciprocal axes: (cart. coord. in units 2 pi/alat)
               b(1) = (  1.000000  0.577350 -0.000000 )  
               b(2) = (  0.000000  1.154701  0.000000 )  
               b(3) = (  0.000000 -0.000000  0.921985 )  


     PseudoPot. # 1 for Sn read from file:
     /root/qe_pseudos/Sn.UPF
     MD5 check sum: 72e22d5a9e1ec4fde6a02e1f963898e9
     Pseudo is Ultrasoft + core correction, Zval = 14.0
     Generated using &quot;atomic&quot; code by A. Dal Corso  v.6.3
     Using radial grid of 1243 points,  6 beta functions with: 
                l(1) =   0
                l(2) =   0
                l(3) =   1
                l(4) =   1
                l(5) =   2
                l(6) =   2
     Q(r) pseudized with 0 coefficients 


     atomic species   valence    mass     pseudopotential
     Sn               14.00   118.71000     Sn( 1.00)

      2 Sym. Ops. (no inversion) found ( 1 have fractional translation)



   Cartesian axes

     site n.     atom                  positions (alat units)
         1        Sn     tau(   1) = (   0.0003210  -0.0009907   0.5743425  )
         2        Sn     tau(   2) = (   0.3309260   0.5787401   0.5738478  )
         3        Sn     tau(   3) = (   0.6667860   0.3848312   0.5108928  )
         4        Sn     tau(   4) = (   0.5011479   0.2885168   0.5756122  )
         5        Sn     tau(   5) = (   0.8326528   0.0966689   0.5095595  )
         6        Sn     tau(   6) = (   0.6668897  -0.0006652   0.5734318  )
         7        Sn     tau(   7) = (   0.1651309   0.6744619   0.5109836  )
         8        Sn     tau(   8) = (   0.0006876   0.5774897   0.5734319  )
         9        Sn     tau(   9) = (   0.5005930   0.6699457   0.5089905  )
        10        Sn     tau(  10) = (   0.3367733   0.3862014   0.5089904  )
        11        Sn     tau(  11) = (   0.5002217   0.0955144   0.5097584  )
        12        Sn     tau(  12) = (   0.3334580  -0.0000720   0.5746801  )
        13        Sn     tau(  13) = (  -0.1659405   0.6737386   0.5097586  )
        14        Sn     tau(  14) = (  -0.3326223   0.5764353   0.5756122  )
        15        Sn     tau(  15) = (  -0.0007247   0.3852675   0.5095595  )
        16        Sn     tau(  16) = (  -0.1678988   0.2893865   0.5739690  )
        17        Sn     tau(  17) = (   0.1675772   0.0956994   0.4996169  )
        18        Sn     tau(  18) = (   0.1676852   0.2888926   0.5743427  )

     number of k points=     1  Methfessel-Paxton smearing, width (Ry)=  0.0100
                       cart. coord. in units 2pi/alat
        k(    1) = (   0.0000000   0.0000000   0.0000000), wk =   2.0000000

     Dense  grid:   711639 G-vectors     FFT dimensions: ( 120, 120, 125)

     Smooth grid:   387101 G-vectors     FFT dimensions: (  96,  96, 108)

     Estimated max dynamical RAM per process >       3.28 GB

     Check: negative core charge=   -0.000004

     Initial potential from superposition of free atoms

     starting charge     251.9751, renormalised to     252.0000

     negative rho (up, down):  4.219E-02 0.000E+00
     Starting wfcs are  162 randomized atomic wfcs

     total cpu time spent up to now is        9.1 secs

     Self-consistent Calculation

     iteration #  1     ecut=    30.00 Ry     beta= 0.40
     Davidson diagonalization with overlap
     ethr =  1.00E-02,  avg # of iterations =  6.0

     Threshold (ethr) on eigenvalues was too large:
     Diagonalizing with lowered threshold

     Davidson diagonalization with overlap
     ethr =  3.20E-04,  avg # of iterations =  6.0

     negative rho (up, down):  4.182E-02 0.000E+00

     total cpu time spent up to now is       10.8 secs

     total energy              =   -2921.77678525 Ry
     estimated scf accuracy    <       0.96632868 Ry

     iteration #  2     ecut=    30.00 Ry     beta= 0.40
     Davidson diagonalization with overlap
     ethr =  3.83E-04,  avg # of iterations =  2.0

     negative rho (up, down):  4.200E-02 0.000E+00

     total cpu time spent up to now is       11.7 secs

     total energy              =   -2921.80619167 Ry
     estimated scf accuracy    <       0.19427942 Ry

     iteration #  3     ecut=    30.00 Ry     beta= 0.40
     Davidson diagonalization with overlap
     ethr =  7.71E-05,  avg # of iterations = 16.0

     negative rho (up, down):  4.238E-02 0.000E+00

     total cpu time spent up to now is       13.1 secs

     total energy              =   -2921.82782351 Ry
     estimated scf accuracy    <       0.11156919 Ry

     iteration #  4     ecut=    30.00 Ry     beta= 0.40
     Davidson diagonalization with overlap
     ethr =  4.43E-05,  avg # of iterations =  2.0

     negative rho (up, down):  4.239E-02 0.000E+00

     total cpu time spent up to now is       14.0 secs

     total energy              =   -2921.84269263 Ry
     estimated scf accuracy    <       0.01953348 Ry

     iteration #  5     ecut=    30.00 Ry     beta= 0.40
     Davidson diagonalization with overlap
     ethr =  7.75E-06,  avg # of iterations =  5.0

     negative rho (up, down):  4.240E-02 0.000E+00

     total cpu time spent up to now is       15.1 secs

     total energy              =   -2921.84572008 Ry
     estimated scf accuracy    <       0.00334103 Ry

     iteration #  6     ecut=    30.00 Ry     beta= 0.40
     Davidson diagonalization with overlap
     c_bands:  2 eigenvalues not converged
     ethr =  1.33E-06,  avg # of iterations = 20.0

     negative rho (up, down):  4.246E-02 0.000E+00

     total cpu time spent up to now is       16.4 secs

     total energy              =   -2921.84604571 Ry
     estimated scf accuracy    <       0.00260907 Ry

     iteration #  7     ecut=    30.00 Ry     beta= 0.40
     Davidson diagonalization with overlap
     ethr =  1.04E-06,  avg # of iterations =  2.0

     negative rho (up, down):  4.247E-02 0.000E+00

     total cpu time spent up to now is       17.2 secs

     total energy              =   -2921.84630267 Ry
     estimated scf accuracy    <       0.00022901 Ry

     iteration #  8     ecut=    30.00 Ry     beta= 0.40
     Davidson diagonalization with overlap
     ethr =  9.09E-08,  avg # of iterations =  3.0

     negative rho (up, down):  4.246E-02 0.000E+00

     total cpu time spent up to now is       18.1 secs

     total energy              =   -2921.84632401 Ry
     estimated scf accuracy    <       0.00023957 Ry

     iteration #  9     ecut=    30.00 Ry     beta= 0.40
     Davidson diagonalization with overlap
     ethr =  9.09E-08,  avg # of iterations =  2.0

     negative rho (up, down):  4.247E-02 0.000E+00

     total cpu time spent up to now is       19.0 secs

     total energy              =   -2921.84635517 Ry
     estimated scf accuracy    <       0.00001491 Ry

     iteration # 10     ecut=    30.00 Ry     beta= 0.40
     Davidson diagonalization with overlap
     ethr =  5.92E-09,  avg # of iterations =  2.0

     negative rho (up, down):  4.249E-02 0.000E+00

     total cpu time spent up to now is       19.8 secs

     total energy              =   -2921.84635712 Ry
     estimated scf accuracy    <       0.00000243 Ry

     iteration # 11     ecut=    30.00 Ry     beta= 0.40
     Davidson diagonalization with overlap
     ethr =  9.65E-10,  avg # of iterations =  2.0

     negative rho (up, down):  4.250E-02 0.000E+00

     total cpu time spent up to now is       20.7 secs

     total energy              =   -2921.84635744 Ry
     estimated scf accuracy    <       0.00000083 Ry

     iteration # 12     ecut=    30.00 Ry     beta= 0.40
     Davidson diagonalization with overlap
     ethr =  3.29E-10,  avg # of iterations =  2.0

     negative rho (up, down):  4.252E-02 0.000E+00

     total cpu time spent up to now is       21.5 secs

     End of self-consistent calculation

          k = 0.0000 0.0000 0.0000 ( 48303 PWs)   bands (ev):

   -22.5124 -22.5103 -22.4892 -22.4835 -22.4737 -22.4708 -22.4680 -22.4544
   -22.4476 -22.4471 -22.4338 -22.4228 -22.4176 -22.4074 -22.4012 -22.3996
   -22.3881 -22.3860 -22.3821 -22.3764 -22.3756 -22.3678 -22.3554 -22.3403
   -22.3388 -22.3304 -22.3253 -22.3189 -22.3059 -22.2708 -22.2689 -22.2685
   -22.2652 -22.2648 -22.2623 -22.2569 -22.2565 -22.2547 -22.2517 -22.2431
   -22.2275 -22.2244 -22.2102 -22.2073 -22.1780 -22.1734 -22.1684 -22.1672
   -22.1655 -22.1633 -22.1623 -22.1600 -22.1592 -22.1572 -22.1533 -22.1528
   -22.1504 -22.1467 -22.1449 -22.1445 -22.1439 -22.1403 -22.1310 -22.1288
   -22.1279 -22.1215 -22.1213 -22.1174 -22.0885 -22.0884 -22.0740 -22.0607
   -22.0585 -22.0568 -22.0159 -22.0110 -21.9955 -21.9828 -21.9774 -21.9698
   -21.9646 -21.9564 -21.8965 -21.8865 -21.8673 -21.8556 -21.8514 -21.8465
   -21.8333 -21.8264 -10.5827  -9.7569  -9.7064  -9.7006  -9.6767  -9.6386
    -9.5892  -8.2574  -8.2504  -8.2347  -8.2291  -6.5281  -6.5202  -6.5098
    -6.5032  -6.4947  -6.4796  -4.6740  -4.0547  -4.0494  -2.8192  -2.8102
    -2.8016  -2.7970  -2.7891  -2.7858  -2.6177  -2.6036  -2.5946  -2.5400
    -2.5211  -2.4994  -1.5806  -1.5643  -1.4874  -1.4797  -1.4788  -1.4652
    -1.0416  -0.4378  -0.4082  -0.4058  -0.3654  -0.3635  -0.3207   0.3338
     0.3514   0.3729   0.3841   0.3991   0.4188   0.4631   1.8264   1.8505
     2.0116   2.2002   2.2070   2.3473   2.3505   2.3537   2.3728

     the Fermi energy is    -1.4749 ev

!    total energy              =   -2921.84635753 Ry
     estimated scf accuracy    <       0.00000009 Ry
     smearing contrib. (-TS)   =      -0.01107839 Ry
     internal energy E=F+TS    =   -2921.83527914 Ry

     The total energy is F=E-TS. E is the sum of the following terms:
     one-electron contribution =   -5691.06088667 Ry
     hartree contribution      =    2921.99285554 Ry
     xc contribution           =    -862.32600485 Ry
     ewald contribution        =     709.55875684 Ry

     convergence has been achieved in  12 iterations

     negative rho (up, down):  4.252E-02 0.000E+00

     Forces acting on atoms (cartesian axes, Ry/au):

     atom    1 type  1   force =     0.00470011    0.00140917   -0.01053074
     atom    2 type  1   force =     0.00551395   -0.00318348   -0.00177892
     atom    3 type  1   force =    -0.00179304    0.00103521   -0.00153346
     atom    4 type  1   force =    -0.00072890   -0.00167797   -0.00134722
     atom    5 type  1   force =     0.00729465   -0.00249247    0.00381585
     atom    6 type  1   force =    -0.00256959    0.00587978    0.00024366
     atom    7 type  1   force =     0.00238304   -0.00137585   -0.00522361
     atom    8 type  1   force =    -0.00637683   -0.00071456    0.00024366
     atom    9 type  1   force =    -0.00297076    0.00731775    0.00546555
     atom   10 type  1   force =    -0.00782273   -0.00108612    0.00546555
     atom   11 type  1   force =     0.00134971   -0.00040220    0.00393386
     atom   12 type  1   force =    -0.00726915    0.00419684   -0.00577664
     atom   13 type  1   force =     0.00102317   -0.00096778    0.00393386
     atom   14 type  1   force =     0.00108871    0.00147023   -0.00134722
     atom   15 type  1   force =     0.00580586   -0.00507112    0.00381585
     atom   16 type  1   force =     0.00288973   -0.00166839   -0.00049936
     atom   17 type  1   force =    -0.00364761    0.00210595    0.01165006
     atom   18 type  1   force =     0.00112968   -0.00477500   -0.01053074

     Total force =     0.032924     Total SCF correction =     0.000822


     Computing stress (Cartesian axis) and pressure


     negative rho (up, down):  4.252E-02 0.000E+00
          total   stress  (Ry/bohr**3)                   (kbar)     P=     -581.32
  -0.00394790  -0.00000066  -0.00000018         -580.76       -0.10       -0.03
  -0.00000066  -0.00394866   0.00000010           -0.10     -580.87        0.02
  -0.00000018   0.00000010  -0.00395869           -0.03        0.02     -582.34


     Writing all to output data dir /root/qe_scratch/pristine_Sn2.save/ :
     XML data file, charge density, pseudopotentials, collected wavefunctions
 
     init_run     :      6.69s CPU      8.82s WALL (       1 calls)
     electrons    :     11.50s CPU     12.39s WALL (       1 calls)
     forces       :      0.27s CPU      0.32s WALL (       1 calls)
     stress       :      0.71s CPU      0.75s WALL (       1 calls)

     Called by init_run:
     wfcinit      :      0.28s CPU      0.44s WALL (       1 calls)
     potinit      :      5.83s CPU      7.48s WALL (       1 calls)
     hinit0       :      0.25s CPU      0.31s WALL (       1 calls)

     Called by electrons:
     c_bands      :      5.63s CPU      5.64s WALL (      13 calls)
     sum_band     :      1.92s CPU      1.94s WALL (      13 calls)
     v_of_rho     :      1.08s CPU      1.49s WALL (      13 calls)
     newd         :      0.43s CPU      0.50s WALL (      13 calls)
                                        0.50s GPU  (      13 calls)
     mix_rho      :      0.57s CPU      0.63s WALL (      13 calls)

     Called by c_bands:
     init_us_2    :      0.03s CPU      0.03s WALL (      27 calls)
     cegterg      :      5.51s CPU      5.53s WALL (      13 calls)

     Called by *egterg:
     cdiaghg      :      0.79s CPU      0.81s WALL (      82 calls)
                                        0.81s GPU  (      82 calls)
     h_psi        :      2.34s CPU      2.48s WALL (      84 calls)
                                        2.48s GPU  (      84 calls)
     s_psi        :      0.07s CPU      0.07s WALL (      84 calls)
     g_psi        :      0.00s CPU      0.01s WALL (      70 calls)
                                        0.01s GPU  (      70 calls)

     Called by h_psi:
     h_psi:calbec :      0.12s CPU      0.71s WALL (      84 calls)
                                        0.71s GPU  (      84 calls)
     vloc_psi     :      1.25s CPU      1.26s WALL (      84 calls)
                                        1.26s GPU  (      84 calls)
     add_vuspsi   :      0.07s CPU      0.50s WALL (      84 calls)
                                        0.50s GPU  (      84 calls)

     General routines
     calbec       :      0.12s CPU      0.25s WALL (     102 calls)
     fft          :      4.29s CPU      5.51s WALL (     193 calls)
                                        0.05s GPU  (     180 calls)
     ffts         :      2.85s CPU      3.65s WALL (      26 calls)
                                        0.00s GPU  (      13 calls)
     fftw         :      0.02s CPU      1.26s WALL (     818 calls)
                                        1.26s GPU  (     818 calls)
     interpolate  :      7.27s CPU      9.25s WALL (      13 calls)
 
     Parallel routines
 
     PWSCF        :     19.64s CPU     22.91s WALL

 
   This run was terminated on:   9:25:40   6May2026            

=------------------------------------------------------------------------------=
   JOB DONE.
=------------------------------------------------------------------------------=
Warning: ieee_invalid is signaling
Warning: ieee_divide_by_zero is signaling
Warning: ieee_inexact is signaling
FORTRAN STOP
