--------------------------------------------------------------------------
WARNING: Open MPI tried to bind a process but failed.  This is a
warning only; your job will continue, though performance may
be degraded.

  Local host:        3253031b5b37
  Application name:  /root/qe-7.3.1/bin/pw.x
  Error message:     failed to bind memory
  Location:          ../../../../../orte/mca/rtc/hwloc/rtc_hwloc.c:447

--------------------------------------------------------------------------

     Program PWSCF v.7.3.1 starts on  6May2026 at  8:41:38 

     This program is part of the open-source Quantum ESPRESSO suite
     for quantum simulation of materials; please cite
         "P. Giannozzi et al., J. Phys.:Condens. Matter 21 395502 (2009);
         "P. Giannozzi et al., J. Phys.:Condens. Matter 29 465901 (2017);
         "P. Giannozzi et al., J. Chem. Phys. 152 154105 (2020);
          URL http://www.quantum-espresso.org", 
     in publications or presentations arising from this work. More details at
     http://www.quantum-espresso.org/quote

     Parallel version (MPI & OpenMP), running on       8 processor cores
     Number of MPI processes:                 1
     Threads/MPI process:                     8

     MPI processes distributed on     1 nodes
     87760 MiB available memory on the printing compute node when the environment starts
 
     Reading input from pristine_Mo2CO2.in

     Current dimensions of program PWSCF are:
     Max number of different atomic species (ntypx) = 10
     Max number of k-points (npk) =  40000
     Max angular momentum in pseudopotentials (lmaxx) =  4
     file Mo.UPF: wavefunction(s)  4S 4D renormalized
 
     Subspace diagonalization in iterative solution of the eigenvalue problem:
     a serial algorithm will be used

 
     G-vector sticks info
     --------------------
     sticks:   dense  smooth     PW     G-vecs:    dense   smooth      PW
     Sum        6763    4507   1135               722649   393377   49103
 
     Using Slab Decomposition
 


     bravais-lattice index     =            0
     lattice parameter (alat)  =      23.3763  a.u.
     unit-cell volume          =   17727.8633 (a.u.)^3
     number of atoms/cell      =           80
     number of atomic types    =            3
     number of electrons       =       704.00
     number of Kohn-Sham states=          422
     kinetic-energy cutoff     =      30.0000  Ry
     charge density cutoff     =     180.0000  Ry
     scf convergence threshold =      1.0E-07
     mixing beta               =       0.4000
     number of iterations used =            8  plain     mixing
     Exchange-correlation= SLA  PW   PBX  PBC
                           (   1   4   3   4   0   0   0)

     GPU acceleration is ACTIVE.  1 visible GPUs per MPI rank


     celldm(1)=  23.376269  celldm(2)=   0.000000  celldm(3)=   0.000000
     celldm(4)=   0.000000  celldm(5)=   0.000000  celldm(6)=   0.000000

     crystal axes: (cart. coord. in units of alat)
               a(1) = (   1.000000   0.000000   0.000000 )  
               a(2) = (  -0.500000   0.866025   0.000000 )  
               a(3) = (   0.000000   0.000000   1.602508 )  

     reciprocal axes: (cart. coord. in units 2 pi/alat)
               b(1) = (  1.000000  0.577350 -0.000000 )  
               b(2) = (  0.000000  1.154701  0.000000 )  
               b(3) = (  0.000000 -0.000000  0.624022 )  


     PseudoPot. # 1 for C  read from file:
     /root/qe_pseudos/C.UPF
     MD5 check sum: 9b35a7431356f8229172919cb1fa74b8
     Pseudo is Norm-conserving, Zval =  4.0
     Generated by new atomic code, or converted to UPF format
     Using radial grid of 1073 points,  1 beta functions with: 
                l(1) =   0

     PseudoPot. # 2 for Mo read from file:
     /root/qe_pseudos/Mo.UPF
     MD5 check sum: 4396e0c640fcce5c25f020efccf1ab12
     Pseudo is Projector augmented-wave + core cor, Zval = 14.0
     Generated using &quot;atomic&quot; code by A. Dal Corso  v.6.3
     Shape of augmentation charge: PSQ
     Using radial grid of 1229 points,  6 beta functions with: 
                l(1) =   0
                l(2) =   0
                l(3) =   1
                l(4) =   1
                l(5) =   2
                l(6) =   2
     Q(r) pseudized with 0 coefficients 


     PseudoPot. # 3 for O  read from file:
     /root/qe_pseudos/O.UPF
     MD5 check sum: c7f41d994d4e90c1781f5cd713c45011
     Pseudo is Projector augmented-wave + core cor, Zval =  6.0
     Generated using "atomic" code by A. Dal Corso (espresso distribution)
     Shape of augmentation charge: BESSEL
     Using radial grid of 1095 points,  4 beta functions with: 
                l(1) =   0
                l(2) =   0
                l(3) =   1
                l(4) =   1
     Q(r) pseudized with 0 coefficients 


     atomic species   valence    mass     pseudopotential
     C                 4.00    12.01100     C ( 1.00)
     Mo               14.00    95.95000     Mo( 1.00)
     O                 6.00    15.99900     O ( 1.00)

     No symmetry found



   Cartesian axes

     site n.     atom                  positions (alat units)
         1        C      tau(   1) = (   0.1230918   0.6509561   0.8003335  )
         2        C      tau(   2) = (  -0.3762241   0.6515983   0.8013024  )
         3        C      tau(   3) = (   0.0000345   0.4350395   0.7980741  )
         4        C      tau(   4) = (   0.3719151   0.2170024   0.8011296  )
         5        C      tau(   5) = (   0.7482435  -0.0009710   0.7980419  )
         6        C      tau(   6) = (  -0.2489241   0.4300606   0.8010590  )
         7        C      tau(   7) = (   0.2517083  -0.0010432   0.7980359  )
         8        C      tau(   8) = (   0.6274190   0.2165034   0.8013191  )
         9        C      tau(   9) = (   0.1212796   0.2144780   0.8060221  )
        10        C      tau(  10) = (  -0.1213980   0.2143730   0.8060584  )
        11        C      tau(  11) = (   0.4999886   0.4330027   0.8049716  )
        12        C      tau(  12) = (  -0.1227173   0.6504146   0.8003682  )
        13        C      tau(  13) = (   0.0001095   0.0041766   0.8061018  )
        14        C      tau(  14) = (   0.3769707   0.6519111   0.8010628  )
        15        C      tau(  15) = (   0.4996512  -0.0022490   0.8002632  )
        16        C      tau(  16) = (   0.2488367   0.4308560   0.8013054  )
        17        Mo     tau(  17) = (   0.6224639   0.0697425   0.8918337  )
        18        Mo     tau(  18) = (   0.3779866   0.3627435   0.7086429  )
        19        Mo     tau(  19) = (   0.4999218   0.2845404   0.8906623  )
        20        Mo     tau(  20) = (   0.0000794   0.7219385   0.9062060  )
        21        Mo     tau(  21) = (   0.2539181   0.5755467   0.7093056  )
        22        Mo     tau(  22) = (  -0.0000892   0.1441598   0.7070662  )
        23        Mo     tau(  23) = (   0.1244170   0.7937343   0.7083339  )
        24        Mo     tau(  24) = (   0.2477746   0.7203683   0.8918531  )
        25        Mo     tau(  25) = (   0.7516616   0.1483650   0.7089691  )
        26        Mo     tau(  26) = (   0.8657266   0.0670236   0.8884005  )
        27        Mo     tau(  27) = (   0.6218502   0.3624397   0.7086422  )
        28        Mo     tau(  28) = (   0.7530619   0.2866039   0.8963661  )
        29        Mo     tau(  29) = (   0.5002117   0.5737879   0.7086302  )
        30        Mo     tau(  30) = (   0.6286075   0.5071651   0.8906355  )
        31        Mo     tau(  31) = (   0.3793794   0.7942541   0.7087826  )
        32        Mo     tau(  32) = (   0.5002156   0.7252910   0.8963572  )
        33        Mo     tau(  33) = (   0.3714465   0.5072915   0.8906561  )
        34        Mo     tau(  34) = (  -0.1246543   0.7933050   0.7082922  )
        35        Mo     tau(  35) = (   0.4995656   0.1487537   0.7092517  )
        36        Mo     tau(  36) = (  -0.2466860   0.7206633   0.8918011  )
        37        Mo     tau(  37) = (  -0.1250923   0.5078084   0.8917868  )
        38        Mo     tau(  38) = (  -0.2534684   0.5748900   0.7093013  )
        39        Mo     tau(  39) = (   0.2474903   0.1479608   0.7087819  )
        40        Mo     tau(  40) = (   0.3772619   0.0708103   0.8918712  )
        41        Mo     tau(  41) = (   0.1276203   0.3574184   0.7089924  )
        42        Mo     tau(  42) = (   0.2466767   0.2870374   0.8963777  )
        43        Mo     tau(  43) = (  -0.1268331   0.3568556   0.7087882  )
        44        Mo     tau(  44) = (   0.0001823   0.2993511   0.8884755  )
        45        Mo     tau(  45) = (  -0.3793241   0.7933048   0.7089669  )
        46        Mo     tau(  46) = (   0.1242808   0.5086099   0.8917642  )
        47        Mo     tau(  47) = (   0.0002191   0.5778362   0.7081531  )
        48        Mo     tau(  48) = (   0.1341868   0.0668270   0.8884650  )
        49        O      tau(  49) = (  -0.2498405   0.5773243   0.9849951  )
        50        O      tau(  50) = (   0.7488444   0.1439762   0.9846490  )
        51        O      tau(  51) = (   0.8775827   0.0737860   0.6168741  )
        52        O      tau(  52) = (   0.0000976   0.2856017   0.6169956  )
        53        O      tau(  53) = (   0.6234898   0.5043077   0.6159066  )
        54        O      tau(  54) = (   0.6266491   0.3597761   0.9804745  )
        55        O      tau(  55) = (   0.7497044   0.2888184   0.6167571  )
        56        O      tau(  56) = (  -0.1254408   0.3617701   0.9846936  )
        57        O      tau(  57) = (  -0.1244387   0.5041069   0.6208366  )
        58        O      tau(  58) = (   0.0000200   0.1443695   0.9957816  )
        59        O      tau(  59) = (   0.1222973   0.0735924   0.6169444  )
        60        O      tau(  60) = (   0.5000939   0.5793158   0.9804780  )
        61        O      tau(  61) = (   0.3744051   0.7930138   0.9846997  )
        62        O      tau(  62) = (  -0.0003420   0.5764712   0.9867406  )
        63        O      tau(  63) = (   0.1260166   0.7940492   0.9869639  )
        64        O      tau(  64) = (  -0.1256676   0.7946064   0.9869360  )
        65        O      tau(  65) = (  -0.0000200   0.7216715   0.6152684  )
        66        O      tau(  66) = (   0.5000199   0.7213644   0.6167512  )
        67        O      tau(  67) = (   0.2502650   0.2888537   0.6167797  )
        68        O      tau(  68) = (   0.1253001   0.3620331   0.9846615  )
        69        O      tau(  69) = (   0.4998917   0.1441768   0.9849860  )
        70        O      tau(  70) = (   0.6256161   0.0724666   0.6208566  )
        71        O      tau(  71) = (   0.2506539   0.7227072   0.6208860  )
        72        O      tau(  72) = (   0.3737856   0.0722329   0.6209234  )
        73        O      tau(  73) = (   0.5000100   0.2904269   0.6158578  )
        74        O      tau(  74) = (   0.2510060   0.1442359   0.9847401  )
        75        O      tau(  75) = (   0.2499267   0.5775135   0.9850100  )
        76        O      tau(  76) = (   0.3765081   0.5042832   0.6159107  )
        77        O      tau(  77) = (  -0.2505579   0.7220827   0.6208023  )
        78        O      tau(  78) = (  -0.3741264   0.7930118   0.9846194  )
        79        O      tau(  79) = (   0.1249291   0.5044888   0.6207890  )
        80        O      tau(  80) = (   0.3732489   0.3599459   0.9804764  )

     number of k points=     1  Methfessel-Paxton smearing, width (Ry)=  0.0100
                       cart. coord. in units 2pi/alat
        k(    1) = (   0.0000000   0.0000000   0.0000000), wk =   2.0000000

     Dense  grid:   722649 G-vectors     FFT dimensions: ( 100, 100, 160)

     Smooth grid:   393377 G-vectors     FFT dimensions: (  81,  81, 135)

     Estimated max dynamical RAM per process >       4.40 GB

     Check: negative core charge=   -0.000003

     Initial potential from superposition of free atoms

     starting charge     695.9721, renormalised to     704.0000

     negative rho (up, down):  7.833E-02 0.000E+00
     Starting wfcs are  576 randomized atomic wfcs
     Checking if some PAW data can be deallocated... 

     total cpu time spent up to now is       28.9 secs

     Self-consistent Calculation

     iteration #  1     ecut=    30.00 Ry     beta= 0.40
     Davidson diagonalization with overlap
     ethr =  1.00E-02,  avg # of iterations =  3.0

     negative rho (up, down):  8.620E-02 0.000E+00

     total cpu time spent up to now is       49.3 secs

     total energy              =  -13146.59680193 Ry
     estimated scf accuracy    <      38.28002924 Ry

     iteration #  2     ecut=    30.00 Ry     beta= 0.40
     Davidson diagonalization with overlap
     ethr =  5.44E-03,  avg # of iterations =  3.0

     negative rho (up, down):  9.145E-02 0.000E+00

     total cpu time spent up to now is       69.6 secs

     total energy              =  -13146.95032862 Ry
     estimated scf accuracy    <      42.33039756 Ry

     iteration #  3     ecut=    30.00 Ry     beta= 0.40
     Davidson diagonalization with overlap
     ethr =  5.44E-03,  avg # of iterations =  4.0

     negative rho (up, down):  9.490E-02 0.000E+00

     total cpu time spent up to now is       89.7 secs

     total energy              =  -13146.30212475 Ry
     estimated scf accuracy    <     259.61728500 Ry

     iteration #  4     ecut=    30.00 Ry     beta= 0.40
     Davidson diagonalization with overlap
     ethr =  5.44E-03,  avg # of iterations =  3.0

     negative rho (up, down):  9.724E-02 0.000E+00

     total cpu time spent up to now is      109.6 secs

     total energy              =  -13157.24481251 Ry
     estimated scf accuracy    <      14.27997821 Ry

     iteration #  5     ecut=    30.00 Ry     beta= 0.40
     Davidson diagonalization with overlap
     ethr =  2.03E-03,  avg # of iterations =  2.0

     negative rho (up, down):  9.879E-02 0.000E+00

     total cpu time spent up to now is      129.4 secs

     total energy              =  -13157.90483507 Ry
     estimated scf accuracy    <       9.45250666 Ry

     iteration #  6     ecut=    30.00 Ry     beta= 0.40
     Davidson diagonalization with overlap
     ethr =  1.34E-03,  avg # of iterations =  2.0

     negative rho (up, down):  9.990E-02 0.000E+00

     total cpu time spent up to now is      149.3 secs

     total energy              =  -13158.18293146 Ry
     estimated scf accuracy    <       1.95036058 Ry

     iteration #  7     ecut=    30.00 Ry     beta= 0.40
     Davidson diagonalization with overlap
     ethr =  2.77E-04,  avg # of iterations =  7.0

     negative rho (up, down):  1.007E-01 0.000E+00

     total cpu time spent up to now is      169.5 secs

     total energy              =  -13158.23616185 Ry
     estimated scf accuracy    <       0.90307403 Ry

     iteration #  8     ecut=    30.00 Ry     beta= 0.40
     Davidson diagonalization with overlap
     ethr =  1.28E-04,  avg # of iterations =  2.0

     negative rho (up, down):  1.017E-01 0.000E+00

     total cpu time spent up to now is      189.3 secs

     total energy              =  -13158.21495201 Ry
     estimated scf accuracy    <       0.79699112 Ry

     iteration #  9     ecut=    30.00 Ry     beta= 0.40
     Davidson diagonalization with overlap
     ethr =  1.13E-04,  avg # of iterations =  2.0

     negative rho (up, down):  1.037E-01 0.000E+00

     total cpu time spent up to now is      209.2 secs

     total energy              =  -13158.18481919 Ry
     estimated scf accuracy    <       1.06023214 Ry

     iteration # 10     ecut=    30.00 Ry     beta= 0.40
     Davidson diagonalization with overlap
     ethr =  1.13E-04,  avg # of iterations =  2.0

     negative rho (up, down):  1.043E-01 0.000E+00

     total cpu time spent up to now is      228.9 secs

     total energy              =  -13158.23428930 Ry
     estimated scf accuracy    <       0.28325960 Ry

     iteration # 11     ecut=    30.00 Ry     beta= 0.40
     Davidson diagonalization with overlap
     ethr =  4.02E-05,  avg # of iterations =  2.0

     negative rho (up, down):  1.051E-01 0.000E+00

     total cpu time spent up to now is      248.7 secs

     total energy              =  -13158.24750235 Ry
     estimated scf accuracy    <       0.09117648 Ry

     iteration # 12     ecut=    30.00 Ry     beta= 0.40
     Davidson diagonalization with overlap
     ethr =  1.30E-05,  avg # of iterations = 11.0

     negative rho (up, down):  1.058E-01 0.000E+00

     total cpu time spent up to now is      269.1 secs

     total energy              =  -13158.24761916 Ry
     estimated scf accuracy    <       0.14406057 Ry

     iteration # 13     ecut=    30.00 Ry     beta= 0.40
     Davidson diagonalization with overlap
     ethr =  1.30E-05,  avg # of iterations =  3.0

     negative rho (up, down):  1.060E-01 0.000E+00

     total cpu time spent up to now is      289.1 secs

     total energy              =  -13158.24517384 Ry
     estimated scf accuracy    <       0.29727649 Ry

     iteration # 14     ecut=    30.00 Ry     beta= 0.40
     Davidson diagonalization with overlap
     ethr =  1.30E-05,  avg # of iterations =  1.0

     negative rho (up, down):  1.065E-01 0.000E+00

     total cpu time spent up to now is      308.7 secs

     total energy              =  -13158.25796005 Ry
     estimated scf accuracy    <       0.04914879 Ry

     iteration # 15     ecut=    30.00 Ry     beta= 0.40
     Davidson diagonalization with overlap
     ethr =  6.98E-06,  avg # of iterations =  2.0

     negative rho (up, down):  1.068E-01 0.000E+00

     total cpu time spent up to now is      328.5 secs

     total energy              =  -13158.25802607 Ry
     estimated scf accuracy    <       0.08420996 Ry

     iteration # 16     ecut=    30.00 Ry     beta= 0.40
     Davidson diagonalization with overlap
     ethr =  6.98E-06,  avg # of iterations =  1.0

     negative rho (up, down):  1.070E-01 0.000E+00

     total cpu time spent up to now is      348.0 secs

     total energy              =  -13158.26158990 Ry
     estimated scf accuracy    <       0.01005292 Ry

     iteration # 17     ecut=    30.00 Ry     beta= 0.40
     Davidson diagonalization with overlap
     c_bands:  2 eigenvalues not converged
     ethr =  1.43E-06,  avg # of iterations = 20.0

     negative rho (up, down):  1.072E-01 0.000E+00

     total cpu time spent up to now is      369.3 secs

     total energy              =  -13158.26166129 Ry
     estimated scf accuracy    <       0.00767464 Ry

     iteration # 18     ecut=    30.00 Ry     beta= 0.40
     Davidson diagonalization with overlap
     ethr =  1.09E-06,  avg # of iterations =  5.0

     negative rho (up, down):  1.072E-01 0.000E+00

     total cpu time spent up to now is      389.4 secs

     total energy              =  -13158.26108876 Ry
     estimated scf accuracy    <       0.02782691 Ry

     iteration # 19     ecut=    30.00 Ry     beta= 0.40
     Davidson diagonalization with overlap
     ethr =  1.09E-06,  avg # of iterations =  2.0

     negative rho (up, down):  1.072E-01 0.000E+00

     total cpu time spent up to now is      409.3 secs

     total energy              =  -13158.26225495 Ry
     estimated scf accuracy    <       0.00519899 Ry

     iteration # 20     ecut=    30.00 Ry     beta= 0.40
     Davidson diagonalization with overlap
     ethr =  7.38E-07,  avg # of iterations =  1.0

     negative rho (up, down):  1.072E-01 0.000E+00

     total cpu time spent up to now is      428.8 secs

     total energy              =  -13158.26242135 Ry
     estimated scf accuracy    <       0.00191476 Ry

     iteration # 21     ecut=    30.00 Ry     beta= 0.40
     Davidson diagonalization with overlap
     ethr =  2.72E-07,  avg # of iterations =  1.0

     negative rho (up, down):  1.073E-01 0.000E+00

     total cpu time spent up to now is      448.2 secs

     total energy              =  -13158.26254903 Ry
     estimated scf accuracy    <       0.00062925 Ry

     iteration # 22     ecut=    30.00 Ry     beta= 0.40
     Davidson diagonalization with overlap
     ethr =  8.94E-08,  avg # of iterations =  2.0

     negative rho (up, down):  1.073E-01 0.000E+00

     total cpu time spent up to now is      468.0 secs

     total energy              =  -13158.26257075 Ry
     estimated scf accuracy    <       0.00050239 Ry

     iteration # 23     ecut=    30.00 Ry     beta= 0.40
     Davidson diagonalization with overlap
     ethr =  7.14E-08,  avg # of iterations =  1.0

     negative rho (up, down):  1.073E-01 0.000E+00

     total cpu time spent up to now is      487.4 secs

     total energy              =  -13158.26257452 Ry
     estimated scf accuracy    <       0.00059163 Ry

     iteration # 24     ecut=    30.00 Ry     beta= 0.40
     Davidson diagonalization with overlap
     ethr =  7.14E-08,  avg # of iterations =  1.0

     negative rho (up, down):  1.073E-01 0.000E+00

     total cpu time spent up to now is      506.9 secs

     total energy              =  -13158.26258172 Ry
     estimated scf accuracy    <       0.00056450 Ry

     iteration # 25     ecut=    30.00 Ry     beta= 0.40
     Davidson diagonalization with overlap
     ethr =  7.14E-08,  avg # of iterations =  1.0

     negative rho (up, down):  1.073E-01 0.000E+00

     total cpu time spent up to now is      526.4 secs

     total energy              =  -13158.26260000 Ry
     estimated scf accuracy    <       0.00023579 Ry

     iteration # 26     ecut=    30.00 Ry     beta= 0.40
     Davidson diagonalization with overlap
     ethr =  3.35E-08,  avg # of iterations =  1.0

     negative rho (up, down):  1.073E-01 0.000E+00

     total cpu time spent up to now is      546.1 secs

     total energy              =  -13158.26261331 Ry
     estimated scf accuracy    <       0.00010814 Ry

     iteration # 27     ecut=    30.00 Ry     beta= 0.40
     Davidson diagonalization with overlap
     ethr =  1.54E-08,  avg # of iterations =  2.0

     negative rho (up, down):  1.073E-01 0.000E+00

     total cpu time spent up to now is      565.8 secs

     total energy              =  -13158.26261755 Ry
     estimated scf accuracy    <       0.00003617 Ry

     iteration # 28     ecut=    30.00 Ry     beta= 0.40
     Davidson diagonalization with overlap
     ethr =  5.14E-09,  avg # of iterations =  1.0

     negative rho (up, down):  1.073E-01 0.000E+00

     total cpu time spent up to now is      585.3 secs

     total energy              =  -13158.26261668 Ry
     estimated scf accuracy    <       0.00004900 Ry

     iteration # 29     ecut=    30.00 Ry     beta= 0.40
     Davidson diagonalization with overlap
     ethr =  5.14E-09,  avg # of iterations =  2.0

     negative rho (up, down):  1.073E-01 0.000E+00

     total cpu time spent up to now is      605.0 secs

     total energy              =  -13158.26261470 Ry
     estimated scf accuracy    <       0.00012375 Ry

     iteration # 30     ecut=    30.00 Ry     beta= 0.40
     Davidson diagonalization with overlap
     ethr =  5.14E-09,  avg # of iterations =  1.0

     negative rho (up, down):  1.073E-01 0.000E+00

     total cpu time spent up to now is      624.6 secs

     total energy              =  -13158.26261910 Ry
     estimated scf accuracy    <       0.00002359 Ry

     iteration # 31     ecut=    30.00 Ry     beta= 0.40
     Davidson diagonalization with overlap
     ethr =  3.35E-09,  avg # of iterations =  2.0

     negative rho (up, down):  1.073E-01 0.000E+00

     total cpu time spent up to now is      644.3 secs

     total energy              =  -13158.26261864 Ry
     estimated scf accuracy    <       0.00003717 Ry

     iteration # 32     ecut=    30.00 Ry     beta= 0.40
     Davidson diagonalization with overlap
     ethr =  3.35E-09,  avg # of iterations =  1.0

     negative rho (up, down):  1.073E-01 0.000E+00

     total cpu time spent up to now is      663.9 secs

     total energy              =  -13158.26262051 Ry
     estimated scf accuracy    <       0.00000812 Ry

     iteration # 33     ecut=    30.00 Ry     beta= 0.40
     Davidson diagonalization with overlap
     ethr =  1.15E-09,  avg # of iterations =  1.0

     negative rho (up, down):  1.073E-01 0.000E+00

     total cpu time spent up to now is      683.4 secs

     total energy              =  -13158.26262077 Ry
     estimated scf accuracy    <       0.00000734 Ry

     iteration # 34     ecut=    30.00 Ry     beta= 0.40
     Davidson diagonalization with overlap
     ethr =  1.04E-09,  avg # of iterations =  1.0

     negative rho (up, down):  1.073E-01 0.000E+00

     total cpu time spent up to now is      702.9 secs

     total energy              =  -13158.26262094 Ry
     estimated scf accuracy    <       0.00000264 Ry

     iteration # 35     ecut=    30.00 Ry     beta= 0.40
     Davidson diagonalization with overlap
     ethr =  3.75E-10,  avg # of iterations =  2.0

     negative rho (up, down):  1.073E-01 0.000E+00

     total cpu time spent up to now is      722.7 secs

     total energy              =  -13158.26262087 Ry
     estimated scf accuracy    <       0.00000513 Ry

     iteration # 36     ecut=    30.00 Ry     beta= 0.40
     Davidson diagonalization with overlap
     ethr =  3.75E-10,  avg # of iterations =  2.0

     negative rho (up, down):  1.073E-01 0.000E+00

     total cpu time spent up to now is      742.4 secs

     total energy              =  -13158.26262095 Ry
     estimated scf accuracy    <       0.00000500 Ry

     iteration # 37     ecut=    30.00 Ry     beta= 0.40
     Davidson diagonalization with overlap
     ethr =  3.75E-10,  avg # of iterations =  1.0

     negative rho (up, down):  1.073E-01 0.000E+00

     total cpu time spent up to now is      761.9 secs

     total energy              =  -13158.26262119 Ry
     estimated scf accuracy    <       0.00000102 Ry

     iteration # 38     ecut=    30.00 Ry     beta= 0.40
     Davidson diagonalization with overlap
     ethr =  1.45E-10,  avg # of iterations =  1.0

     negative rho (up, down):  1.073E-01 0.000E+00

     total cpu time spent up to now is      781.4 secs

     total energy              =  -13158.26262123 Ry
     estimated scf accuracy    <       0.00000051 Ry

     iteration # 39     ecut=    30.00 Ry     beta= 0.40
     Davidson diagonalization with overlap
     ethr =  7.23E-11,  avg # of iterations =  1.0

     negative rho (up, down):  1.073E-01 0.000E+00

     total cpu time spent up to now is      801.0 secs

     total energy              =  -13158.26262123 Ry
     estimated scf accuracy    <       0.00000027 Ry

     iteration # 40     ecut=    30.00 Ry     beta= 0.40
     Davidson diagonalization with overlap
     ethr =  3.79E-11,  avg # of iterations =  2.0

     negative rho (up, down):  1.073E-01 0.000E+00

     total cpu time spent up to now is      820.7 secs

     total energy              =  -13158.26262123 Ry
     estimated scf accuracy    <       0.00000147 Ry

     iteration # 41     ecut=    30.00 Ry     beta= 0.40
     Davidson diagonalization with overlap
     ethr =  3.79E-11,  avg # of iterations =  1.0

     negative rho (up, down):  1.073E-01 0.000E+00

     total cpu time spent up to now is      840.3 secs

     total energy              =  -13158.26262127 Ry
     estimated scf accuracy    <       0.00000014 Ry

     iteration # 42     ecut=    30.00 Ry     beta= 0.40
     Davidson diagonalization with overlap
     ethr =  2.02E-11,  avg # of iterations =  2.0

     negative rho (up, down):  1.073E-01 0.000E+00

     total cpu time spent up to now is      860.2 secs

     total energy              =  -13158.26262127 Ry
     estimated scf accuracy    <       0.00000028 Ry

     iteration # 43     ecut=    30.00 Ry     beta= 0.40
     Davidson diagonalization with overlap
     ethr =  2.02E-11,  avg # of iterations =  1.0

     negative rho (up, down):  1.073E-01 0.000E+00

     total cpu time spent up to now is      879.6 secs

     total energy              =  -13158.26262128 Ry
     estimated scf accuracy    <       0.00000016 Ry

     iteration # 44     ecut=    30.00 Ry     beta= 0.40
     Davidson diagonalization with overlap
     ethr =  2.02E-11,  avg # of iterations =  1.0

     negative rho (up, down):  1.073E-01 0.000E+00

     total cpu time spent up to now is      899.0 secs

     End of self-consistent calculation

          k = 0.0000 0.0000 0.0000 ( 49103 PWs)   bands (ev):

   -61.9924 -61.8681 -61.8447 -61.8431 -61.8145 -61.7995 -61.7983 -61.7818
   -61.7582 -61.7579 -61.7540 -61.7493 -61.7491 -61.7295 -61.7290 -61.7242
   -61.7221 -61.7106 -61.7098 -61.7049 -61.7011 -61.6997 -61.6905 -61.6675
   -61.6618 -61.6611 -61.5903 -61.5822 -61.5819 -61.5771 -61.5768 -61.5765
   -36.2793 -36.2791 -36.2695 -36.2026 -36.2021 -36.1796 -36.1694 -36.1637
   -36.1629 -36.1511 -36.1497 -36.1492 -36.1472 -36.1254 -36.1249 -36.1195
   -36.1081 -36.0993 -36.0984 -36.0846 -36.0842 -36.0803 -36.0800 -36.0667
   -36.0569 -35.9964 -35.9962 -35.9721 -35.9614 -35.9607 -35.9480 -35.9473
   -35.9298 -35.9294 -35.9215 -35.9213 -35.9093 -35.8559 -35.8555 -35.8266
   -35.8259 -35.8145 -35.8117 -35.7986 -35.7944 -35.7943 -35.7849 -35.7823
   -35.7822 -35.7718 -35.7717 -35.7646 -35.7596 -35.7590 -35.7445 -35.7373
   -35.7373 -35.7130 -35.7121 -35.7065 -35.7018 -35.7012 -35.7003 -35.6809
   -35.6753 -35.6749 -35.6635 -35.6430 -35.6427 -35.6401 -35.6384 -35.6208
   -35.6206 -35.6144 -35.6104 -35.6100 -35.6061 -35.6023 -35.6020 -35.5823
   -35.5821 -35.5697 -35.5686 -35.5566 -35.5563 -35.5461 -35.5459 -35.5160
   -35.5158 -35.5017 -35.4855 -35.4746 -35.4742 -35.4741 -35.4370 -35.4366
   -18.0874 -17.9922 -17.8905 -17.8848 -17.8526 -17.8509 -17.8330 -17.7780
   -17.7575 -17.7573 -17.7343 -17.7337 -17.6973 -17.6776 -17.6753 -17.6730
   -17.6488 -17.6391 -17.6369 -17.5950 -17.5929 -17.5675 -17.5545 -17.5514
   -17.5304 -17.5293 -17.5148 -17.4903 -17.4767 -17.4249 -17.4237 -15.6531
   -11.7852 -11.7419 -11.7288 -11.7285 -11.7277 -11.7021 -11.7018 -11.4642
   -11.4256 -11.4246 -11.4091 -11.4083 -11.4067 -11.3108 -11.2605 -11.2594
    -7.0555  -7.0247  -7.0244  -6.7512  -6.1863  -6.1848  -6.1482  -6.1185
    -6.1119  -6.1116  -6.0506  -6.0494  -6.0487  -6.0147  -5.9578  -5.9572
    -5.7631  -5.7631  -5.6036  -5.6030  -5.5808  -5.4798  -5.4798  -5.4644
    -5.4210  -5.4208  -5.3997  -5.3817  -5.3781  -5.3773  -5.3361  -5.2956
    -5.2952  -5.2844  -5.2322  -5.2313  -5.2222  -5.2175  -5.2093  -5.2090
    -5.1601  -5.1597  -5.0295  -5.0255  -5.0246  -4.9994  -4.9989  -4.9750
    -4.9110  -4.9108  -4.9101  -4.8928  -4.8919  -4.8698  -4.8628  -4.8624
    -4.8618  -4.8310  -4.8307  -4.8000  -4.5908  -4.5905  -4.5508  -4.5351
    -4.5030  -4.5025  -4.4736  -4.4731  -4.4662  -4.2767  -4.2758  -4.1322
    -4.0995  -4.0989  -4.0803  -4.0797  -4.0710  -4.0464  -4.0056  -4.0046
    -3.9879  -3.9693  -3.9692  -3.9353  -3.8744  -3.8726  -3.8332  -3.7450
    -3.7442  -3.7368  -3.6923  -3.6857  -3.6855  -3.6314  -3.6312  -3.6200
    -3.5544  -3.5432  -3.5429  -3.3921  -3.3886  -3.3841  -3.3837  -3.2360
    -3.2357  -3.2154  -3.1467  -3.1463  -3.0279  -3.0272  -2.9579  -2.9512
    -2.9453  -2.9448  -2.9175  -2.8574  -2.8567  -2.7750  -2.7127  -2.7119
    -2.6886  -2.6881  -2.6503  -2.5856  -2.5821  -2.5810  -2.5172  -2.3860
    -2.3851  -2.1692  -2.0816  -2.0801  -1.9118  -1.8835  -1.8831  -1.8772
    -1.8769  -1.8575  -1.6420  -1.6066  -1.6056  -1.3299  -1.2937  -1.2931
    -1.1808  -1.1794  -1.1775  -1.0831  -1.0828  -1.0017  -1.0011  -0.8951
    -0.8934  -0.8846  -0.8693  -0.2343  -0.2332  -0.2275  -0.1693  -0.1691
    -0.1108   0.1833   0.3158   0.3183   0.3443   0.3455   0.3530   0.3824
     0.4543   0.4564   0.4960   0.5432   0.5465   0.5496   1.1432   1.1440
     1.1453   1.2205   1.2539   1.2548   1.2851   1.2875   1.3134   1.3782
     1.3795   1.3948   1.3956   1.4074   1.4080   1.4298   1.4577   1.4720
     1.4907   1.4915   1.6212   1.6213   1.6436   1.7670   1.7744   1.7773
     2.0742   2.0751   2.1104   2.1116   2.1120   2.1514   2.1613   2.2035
     2.2284   2.2294   2.2453   2.2457   2.2738   2.3033   2.3045   2.3576
     2.3587   2.4592   2.4732   2.4786   2.4802   2.5048   2.5051   2.5920
     2.6207   2.6434   2.6442   2.6666   2.6981   2.6985   2.8261   2.8284
     2.8408   2.8409   2.8536   2.9230   2.9235   2.9243   2.9255   2.9471
     2.9483   2.9616   2.9931   3.0405   3.0416   3.0710

     the Fermi energy is     1.1653 ev

!    total energy              =  -13158.26262124 Ry
     estimated scf accuracy    <       0.00000007 Ry
     smearing contrib. (-TS)   =      -0.00163927 Ry
     internal energy E=F+TS    =  -13158.26098197 Ry

     The total energy is F=E-TS. E is the sum of the following terms:
     one-electron contribution =  -44240.90918970 Ry
     hartree contribution      =   22196.91653198 Ry
     xc contribution           =    -900.93583598 Ry
     ewald contribution        =   17379.39654930 Ry
     one-center paw contrib.   =   -7592.72903757 Ry

     convergence has been achieved in  44 iterations

     negative rho (up, down):  1.073E-01 0.000E+00

     Forces acting on atoms (cartesian axes, Ry/au):

     atom    1 type  1   force =     0.00277129   -0.00149479    0.00300779
     atom    2 type  1   force =    -0.00182771    0.00251254   -0.00086549
     atom    3 type  1   force =    -0.00022125    0.01958841   -0.02132828
     atom    4 type  1   force =    -0.00283709    0.00053933   -0.00090552
     atom    5 type  1   force =    -0.01660849   -0.00978727   -0.02132266
     atom    6 type  1   force =     0.00064995   -0.00253892   -0.00099474
     atom    7 type  1   force =     0.01683061   -0.00946456   -0.02132443
     atom    8 type  1   force =     0.00314094    0.00027586   -0.00064047
     atom    9 type  1   force =     0.00138119    0.00084917   -0.01106525
     atom   10 type  1   force =    -0.00111661    0.00086516   -0.01083816
     atom   11 type  1   force =     0.00004690   -0.00005259    0.00567578
     atom   12 type  1   force =    -0.00258713   -0.00181537    0.00312118
     atom   13 type  1   force =    -0.00003889   -0.00200122   -0.01049464
     atom   14 type  1   force =     0.00184175    0.00200201   -0.00114156
     atom   15 type  1   force =    -0.00008946    0.00332445    0.00291079
     atom   16 type  1   force =    -0.00111930   -0.00278715   -0.00072513
     atom   17 type  2   force =     0.00219262   -0.00069079   -0.00027166
     atom   18 type  2   force =     0.00289143    0.00203154    0.00151317
     atom   19 type  2   force =    -0.00025607   -0.00741972   -0.01245352
     atom   20 type  2   force =     0.00030013    0.00137103   -0.02412497
     atom   21 type  2   force =     0.00484240   -0.00229576    0.00987537
     atom   22 type  2   force =    -0.00020847   -0.00015795    0.01634056
     atom   23 type  2   force =     0.00506902    0.00332582    0.00757278
     atom   24 type  2   force =     0.00317407    0.00196527   -0.00085273
     atom   25 type  2   force =    -0.00034452    0.00971940    0.01402186
     atom   26 type  2   force =     0.06093427    0.03440714    0.05842498
     atom   27 type  2   force =    -0.00315985    0.00152697    0.00158219
     atom   28 type  2   force =     0.01333185   -0.00834086   -0.01114145
     atom   29 type  2   force =     0.00042065   -0.00332768    0.00165746
     atom   30 type  2   force =     0.00646106    0.00319560   -0.01256443
     atom   31 type  2   force =     0.00777712   -0.00494808    0.01355026
     atom   32 type  2   force =     0.00042717    0.01556204   -0.01125917
     atom   33 type  2   force =    -0.00621965    0.00371657   -0.01246753
     atom   34 type  2   force =    -0.00592031    0.00246274    0.00748865
     atom   35 type  2   force =    -0.00057581    0.00622481    0.00981148
     atom   36 type  2   force =    -0.00077963    0.00228215   -0.00045153
     atom   37 type  2   force =    -0.00011541   -0.00363620   -0.00116405
     atom   38 type  2   force =    -0.00409025   -0.00316418    0.00991145
     atom   39 type  2   force =     0.00049528    0.00930350    0.01368792
     atom   40 type  2   force =    -0.00330956    0.00144771   -0.00084153
     atom   41 type  2   force =     0.00820375   -0.00471769    0.01407677
     atom   42 type  2   force =    -0.01427170   -0.00784422   -0.01111081
     atom   43 type  2   force =    -0.00793946   -0.00416432    0.01344705
     atom   44 type  2   force =    -0.00071111   -0.07012208    0.05833242
     atom   45 type  2   force =    -0.00808557   -0.00492962    0.01421858
     atom   46 type  2   force =    -0.00149976   -0.00166699   -0.00060974
     atom   47 type  2   force =     0.00037708   -0.00676204    0.00717200
     atom   48 type  2   force =    -0.05992292    0.03578270    0.05829689
     atom   49 type  3   force =     0.00289130    0.00191522   -0.00391592
     atom   50 type  3   force =    -0.00825712   -0.00407520   -0.00541303
     atom   51 type  3   force =     0.00263259    0.00114210    0.00132321
     atom   52 type  3   force =    -0.00024763   -0.00300636    0.00149379
     atom   53 type  3   force =     0.00110252    0.00029642    0.00217812
     atom   54 type  3   force =     0.00135592   -0.00086097   -0.00484863
     atom   55 type  3   force =    -0.00266632    0.00145887    0.00092509
     atom   56 type  3   force =    -0.00098783    0.00941120   -0.00560724
     atom   57 type  3   force =    -0.00091851    0.00129586    0.00077555
     atom   58 type  3   force =     0.00006779    0.00007803   -0.10258112
     atom   59 type  3   force =    -0.00244820    0.00163083    0.00140294
     atom   60 type  3   force =     0.00001840    0.00157668   -0.00474170
     atom   61 type  3   force =    -0.00759388   -0.00544204   -0.00574997
     atom   62 type  3   force =    -0.00065867    0.00126508   -0.00110783
     atom   63 type  3   force =    -0.00039257   -0.00116004   -0.00062655
     atom   64 type  3   force =     0.00116998   -0.00012961   -0.00080165
     atom   65 type  3   force =     0.00002334   -0.00010260    0.00133407
     atom   66 type  3   force =     0.00005534   -0.00298234    0.00086082
     atom   67 type  3   force =     0.00266815    0.00162495    0.00088396
     atom   68 type  3   force =     0.00063457    0.00927861   -0.00537815
     atom   69 type  3   force =     0.00022084   -0.00367927   -0.00410016
     atom   70 type  3   force =    -0.00147827    0.00009199    0.00115477
     atom   71 type  3   force =    -0.00077120   -0.00143925    0.00103087
     atom   72 type  3   force =     0.00168669    0.00011367    0.00095469
     atom   73 type  3   force =    -0.00030989   -0.00110565    0.00189330
     atom   74 type  3   force =     0.00867659   -0.00384527   -0.00556095
     atom   75 type  3   force =    -0.00310591    0.00164277   -0.00396866
     atom   76 type  3   force =    -0.00074600    0.00084205    0.00218295
     atom   77 type  3   force =     0.00055453   -0.00127165    0.00088765
     atom   78 type  3   force =     0.00763633   -0.00509244   -0.00552815
     atom   79 type  3   force =     0.00090156    0.00111851    0.00080432
     atom   80 type  3   force =    -0.00141903   -0.00074202   -0.00489433

     Total force =     0.210856     Total SCF correction =     0.001490


     Computing stress (Cartesian axis) and pressure


     negative rho (up, down):  1.073E-01 0.000E+00
          total   stress  (Ry/bohr**3)                   (kbar)     P=     -111.57
  -0.00078204   0.00000002   0.00000004         -115.04        0.00        0.01
   0.00000002  -0.00078200   0.00000008            0.00     -115.04        0.01
   0.00000004   0.00000008  -0.00071132            0.01        0.01     -104.64


     Writing all to output data dir /root/qe_scratch/pristine_Mo2CO2.save/ :
     XML data file, charge density, pseudopotentials, collected wavefunctions
 
     init_run     :     22.01s CPU     28.29s WALL (       1 calls)
     electrons    :    720.13s CPU    870.15s WALL (       1 calls)
     forces       :      1.70s CPU      1.76s WALL (       1 calls)
     stress       :      2.88s CPU      2.92s WALL (       1 calls)

     Called by init_run:
     wfcinit      :      1.00s CPU      1.18s WALL (       1 calls)
     potinit      :     19.87s CPU     25.42s WALL (       1 calls)
     hinit0       :      0.57s CPU      0.69s WALL (       1 calls)

     Called by electrons:
     c_bands      :     68.81s CPU     68.93s WALL (      44 calls)
     sum_band     :      9.64s CPU      9.68s WALL (      44 calls)
     v_of_rho     :      3.79s CPU      5.03s WALL (      45 calls)
     newd         :     14.68s CPU     14.78s WALL (      45 calls)
                                       14.78s GPU  (      45 calls)
     PAW_pot      :    627.60s CPU    777.86s WALL (      45 calls)
     mix_rho      :      2.87s CPU      3.02s WALL (      44 calls)

     Called by c_bands:
     init_us_2    :      0.26s CPU      0.26s WALL (      89 calls)
     cegterg      :     67.75s CPU     67.83s WALL (      44 calls)

     Called by *egterg:
     cdiaghg      :      4.74s CPU      4.80s WALL (     154 calls)
                                        4.80s GPU  (     154 calls)
     h_psi        :     26.84s CPU     27.02s WALL (     155 calls)
                                       27.01s GPU  (     155 calls)
     s_psi        :      0.40s CPU      0.41s WALL (     155 calls)
     g_psi        :      0.00s CPU      0.08s WALL (     110 calls)
                                        0.08s GPU  (     110 calls)

     Called by h_psi:
     h_psi:calbec :      0.13s CPU      8.70s WALL (     155 calls)
                                        8.70s GPU  (     155 calls)
     vloc_psi     :      9.63s CPU      9.68s WALL (     155 calls)
                                        9.68s GPU  (     155 calls)
     add_vuspsi   :      0.41s CPU      8.56s WALL (     155 calls)
                                        8.56s GPU  (     155 calls)

     General routines
     calbec       :      0.14s CPU      0.26s WALL (     204 calls)
     fft          :      5.77s CPU      7.59s WALL (     608 calls)
                                        0.12s GPU  (     563 calls)
     ffts         :      5.00s CPU      6.78s WALL (      89 calls)
                                        0.01s GPU  (      44 calls)
     fftw         :      0.14s CPU     10.00s WALL (    6242 calls)
                                        9.98s GPU  (    6242 calls)
     interpolate  :     11.20s CPU     14.75s WALL (      45 calls)
 
     Parallel routines
 
     PWSCF        :  12m27.46s CPU  15m 4.26s WALL

 
   This run was terminated on:   8:56:42   6May2026            

=------------------------------------------------------------------------------=
   JOB DONE.
=------------------------------------------------------------------------------=
Warning: ieee_invalid is signaling
Warning: ieee_divide_by_zero is signaling
Warning: ieee_underflow is signaling
Warning: ieee_inexact is signaling
FORTRAN STOP
