--------------------------------------------------------------------------
WARNING: Open MPI tried to bind a process but failed.  This is a
warning only; your job will continue, though performance may
be degraded.

  Local host:        3253031b5b37
  Application name:  /root/qe-7.3.1/bin/pw.x
  Error message:     failed to bind memory
  Location:          ../../../../../orte/mca/rtc/hwloc/rtc_hwloc.c:447

--------------------------------------------------------------------------

     Program PWSCF v.7.3.1 starts on  6May2026 at 10: 9:50 

     This program is part of the open-source Quantum ESPRESSO suite
     for quantum simulation of materials; please cite
         "P. Giannozzi et al., J. Phys.:Condens. Matter 21 395502 (2009);
         "P. Giannozzi et al., J. Phys.:Condens. Matter 29 465901 (2017);
         "P. Giannozzi et al., J. Chem. Phys. 152 154105 (2020);
          URL http://www.quantum-espresso.org", 
     in publications or presentations arising from this work. More details at
     http://www.quantum-espresso.org/quote

     Parallel version (MPI & OpenMP), running on       8 processor cores
     Number of MPI processes:                 1
     Threads/MPI process:                     8

     MPI processes distributed on     1 nodes
     85488 MiB available memory on the printing compute node when the environment starts
 
     Reading input from pristine_TiS2.in

     Current dimensions of program PWSCF are:
     Max number of different atomic species (ntypx) = 10
     Max number of k-points (npk) =  40000
     Max angular momentum in pseudopotentials (lmaxx) =  4
     file S.UPF: wavefunction(s)  3S 3P renormalized
     file Ti.UPF: wavefunction(s)  3S 3P 3D renormalized
 
     Subspace diagonalization in iterative solution of the eigenvalue problem:
     a serial algorithm will be used

 
     G-vector sticks info
     --------------------
     sticks:   dense  smooth     PW     G-vecs:    dense   smooth      PW
     Sum        4675    3103    769               446431   242967   30407
 
     Using Slab Decomposition
 


     bravais-lattice index     =            0
     lattice parameter (alat)  =      19.3567  a.u.
     unit-cell volume          =   10943.8233 (a.u.)^3
     number of atoms/cell      =           27
     number of atomic types    =            2
     number of electrons       =       216.00
     number of Kohn-Sham states=          130
     kinetic-energy cutoff     =      30.0000  Ry
     charge density cutoff     =     180.0000  Ry
     scf convergence threshold =      1.0E-07
     mixing beta               =       0.4000
     number of iterations used =            8  plain     mixing
     Exchange-correlation= SLA  PW   PBX  PBC
                           (   1   4   3   4   0   0   0)

     GPU acceleration is ACTIVE.  1 visible GPUs per MPI rank


     celldm(1)=  19.356728  celldm(2)=   0.000000  celldm(3)=   0.000000
     celldm(4)=   0.000000  celldm(5)=   0.000000  celldm(6)=   0.000000

     crystal axes: (cart. coord. in units of alat)
               a(1) = (   1.000000   0.000000   0.000000 )  
               a(2) = (  -0.500000   0.866025   0.000000 )  
               a(3) = (   0.000000   0.000000   1.742379 )  

     reciprocal axes: (cart. coord. in units 2 pi/alat)
               b(1) = (  1.000000  0.577350 -0.000000 )  
               b(2) = (  0.000000  1.154701  0.000000 )  
               b(3) = (  0.000000 -0.000000  0.573928 )  


     PseudoPot. # 1 for S  read from file:
     /root/qe_pseudos/S.UPF
     MD5 check sum: fb45dfebcf3e72a4e1bd4a866ec2e262
     Pseudo is Projector augmented-wave + core cor, Zval =  6.0
     Generated using &quot;atomic&quot; code by A. Dal Corso  v.6.3
     Shape of augmentation charge: PSQ
     Using radial grid of 1151 points,  6 beta functions with: 
                l(1) =   0
                l(2) =   0
                l(3) =   1
                l(4) =   1
                l(5) =   2
                l(6) =   2
     Q(r) pseudized with 0 coefficients 


     PseudoPot. # 2 for Ti read from file:
     /root/qe_pseudos/Ti.UPF
     MD5 check sum: 01f69b0d8ba4438b2e03ac6ea4af1c0b
     Pseudo is Projector augmented-wave + core cor, Zval = 12.0
     Generated using &quot;atomic&quot; code by A. Dal Corso  v.6.2.2
     Shape of augmentation charge: PSQ
     Using radial grid of 1177 points,  6 beta functions with: 
                l(1) =   0
                l(2) =   0
                l(3) =   1
                l(4) =   1
                l(5) =   2
                l(6) =   2
     Q(r) pseudized with 0 coefficients 


     atomic species   valence    mass     pseudopotential
     S                 6.00    32.06000     S ( 1.00)
     Ti               12.00    47.86700     Ti( 1.00)

     No symmetry found



   Cartesian axes

     site n.     atom                  positions (alat units)
         1        S      tau(   1) = (   0.4999468   0.6702534   1.0181371  )
         2        S      tau(   2) = (   0.4999755   0.4846998   0.7320928  )
         3        S      tau(   3) = (   0.6650522   0.3829870   1.0090383  )
         4        S      tau(   4) = (   0.6705831   0.1921941   0.7354266  )
         5        S      tau(   5) = (   0.8249904   0.1042744   1.0221543  )
         6        S      tau(   6) = (  -0.0001349   0.7725681   0.7300484  )
         7        S      tau(   7) = (   0.1710969   0.6766022   1.0140063  )
         8        S      tau(   8) = (   0.1643174   0.4839137   0.7286834  )
         9        S      tau(   9) = (   0.3332283   0.7718640   0.7360284  )
        10        S      tau(  10) = (   0.3292831   0.1922629   0.7353418  )
        11        S      tau(  11) = (   0.3346289   0.3830805   1.0092113  )
        12        S      tau(  12) = (  -0.3332926   0.7719451   0.7361235  )
        13        S      tau(  13) = (  -0.1709810   0.6764493   1.0139412  )
        14        S      tau(  14) = (  -0.1642046   0.4839418   0.7287353  )
        15        S      tau(  15) = (  -0.0000284   0.3847364   1.0141299  )
        16        S      tau(  16) = (  -0.0000232   0.1861311   0.7465096  )
        17        S      tau(  17) = (   0.1750015   0.1043349   1.0222061  )
        18        S      tau(  18) = (   0.4999815   0.0982218   1.0080377  )
        19        Ti     tau(  19) = (   0.1731371   0.3043562   0.8644675  )
        20        Ti     tau(  20) = (   0.3422682  -0.0155400   0.8724494  )
        21        Ti     tau(  21) = (   0.0000746   0.5680099   0.8794644  )
        22        Ti     tau(  22) = (  -0.3364706   0.5772599   0.8740031  )
        23        Ti     tau(  23) = (   0.6576818  -0.0155671   0.8720788  )
        24        Ti     tau(  24) = (   0.5000997   0.2858714   0.8647846  )
        25        Ti     tau(  25) = (  -0.1726265   0.3043208   0.8641697  )
        26        Ti     tau(  26) = (   0.3363485   0.5774752   0.8740204  )
        27        Ti     tau(  27) = (   0.0000626  -0.0050307   0.8684644  )

     number of k points=     1  Methfessel-Paxton smearing, width (Ry)=  0.0100
                       cart. coord. in units 2pi/alat
        k(    1) = (   0.0000000   0.0000000   0.0000000), wk =   2.0000000

     Dense  grid:   446431 G-vectors     FFT dimensions: (  90,  90, 150)

     Smooth grid:   242967 G-vectors     FFT dimensions: (  72,  72, 120)

     Estimated max dynamical RAM per process >       2.14 GB

     Check: negative core charge=   -0.000025

     Initial potential from superposition of free atoms

     starting charge     215.9861, renormalised to     216.0000

     negative rho (up, down):  2.178E-02 0.000E+00
     Starting wfcs are  162 randomized atomic wfcs
     Checking if some PAW data can be deallocated... 

     total cpu time spent up to now is       19.2 secs

     Self-consistent Calculation

     iteration #  1     ecut=    30.00 Ry     beta= 0.40
     Davidson diagonalization with overlap
     ethr =  1.00E-02,  avg # of iterations =  2.0

     negative rho (up, down):  2.148E-02 0.000E+00

     total cpu time spent up to now is       31.1 secs

     total energy              =   -2846.93746407 Ry
     estimated scf accuracy    <       3.69851866 Ry

     iteration #  2     ecut=    30.00 Ry     beta= 0.40
     Davidson diagonalization with overlap
     ethr =  1.71E-03,  avg # of iterations =  6.0

     negative rho (up, down):  4.931E-02 0.000E+00

     total cpu time spent up to now is       43.0 secs

     total energy              =   -2845.46998684 Ry
     estimated scf accuracy    <      23.73194162 Ry

     iteration #  3     ecut=    30.00 Ry     beta= 0.40
     Davidson diagonalization with overlap
     ethr =  1.71E-03,  avg # of iterations =  4.0

     negative rho (up, down):  4.435E-02 0.000E+00

     total cpu time spent up to now is       54.8 secs

     total energy              =   -2847.96554697 Ry
     estimated scf accuracy    <       2.05808707 Ry

     iteration #  4     ecut=    30.00 Ry     beta= 0.40
     Davidson diagonalization with overlap
     ethr =  9.53E-04,  avg # of iterations =  3.0

     negative rho (up, down):  4.563E-02 0.000E+00

     total cpu time spent up to now is       66.6 secs

     total energy              =   -2848.19168208 Ry
     estimated scf accuracy    <       0.46384014 Ry

     iteration #  5     ecut=    30.00 Ry     beta= 0.40
     Davidson diagonalization with overlap
     ethr =  2.15E-04,  avg # of iterations =  4.0

     negative rho (up, down):  5.434E-02 0.000E+00

     total cpu time spent up to now is       78.4 secs

     total energy              =   -2848.20367049 Ry
     estimated scf accuracy    <       0.24477604 Ry

     iteration #  6     ecut=    30.00 Ry     beta= 0.40
     Davidson diagonalization with overlap
     ethr =  1.13E-04,  avg # of iterations =  1.0

     negative rho (up, down):  6.462E-02 0.000E+00

     total cpu time spent up to now is       90.0 secs

     total energy              =   -2848.20146999 Ry
     estimated scf accuracy    <       0.11765396 Ry

     iteration #  7     ecut=    30.00 Ry     beta= 0.40
     Davidson diagonalization with overlap
     ethr =  5.45E-05,  avg # of iterations =  5.0

     negative rho (up, down):  8.256E-02 0.000E+00

     total cpu time spent up to now is      101.9 secs

     total energy              =   -2848.21110607 Ry
     estimated scf accuracy    <       0.01435646 Ry

     iteration #  8     ecut=    30.00 Ry     beta= 0.40
     Davidson diagonalization with overlap
     ethr =  6.65E-06,  avg # of iterations =  6.0

     negative rho (up, down):  1.098E-01 0.000E+00

     total cpu time spent up to now is      113.7 secs

     total energy              =   -2848.21887406 Ry
     estimated scf accuracy    <       0.01554327 Ry

     iteration #  9     ecut=    30.00 Ry     beta= 0.40
     Davidson diagonalization with overlap
     ethr =  6.65E-06,  avg # of iterations =  2.0

     negative rho (up, down):  1.478E-01 0.000E+00

     total cpu time spent up to now is      125.4 secs

     total energy              =   -2848.22519610 Ry
     estimated scf accuracy    <       0.00637039 Ry

     iteration # 10     ecut=    30.00 Ry     beta= 0.40
     Davidson diagonalization with overlap
     ethr =  2.95E-06,  avg # of iterations = 17.0

     negative rho (up, down):  2.052E-01 0.000E+00

     total cpu time spent up to now is      137.6 secs

     total energy              =   -2848.23179000 Ry
     estimated scf accuracy    <       0.00661296 Ry

     iteration # 11     ecut=    30.00 Ry     beta= 0.40
     Davidson diagonalization with overlap
     ethr =  2.95E-06,  avg # of iterations =  3.0

     negative rho (up, down):  3.494E-01 0.000E+00

     total cpu time spent up to now is      149.4 secs

     total energy              =   -2848.21921204 Ry
     estimated scf accuracy    <       0.00378503 Ry

     iteration # 12     ecut=    30.00 Ry     beta= 0.40
     Davidson diagonalization with overlap
     ethr =  1.75E-06,  avg # of iterations =  3.0

     negative rho (up, down):  3.749E-01 0.000E+00

     total cpu time spent up to now is      161.2 secs

     total energy              =   -2848.23771704 Ry
     estimated scf accuracy    <       0.00816525 Ry

     iteration # 13     ecut=    30.00 Ry     beta= 0.40
     Davidson diagonalization with overlap
     ethr =  1.75E-06,  avg # of iterations =  3.0

     negative rho (up, down):  4.264E-01 0.000E+00

     total cpu time spent up to now is      173.0 secs

     total energy              =   -2848.25601202 Ry
     estimated scf accuracy    <       0.01230325 Ry

     iteration # 14     ecut=    30.00 Ry     beta= 0.40
     Davidson diagonalization with overlap
     ethr =  1.75E-06,  avg # of iterations =  3.0

     negative rho (up, down):  5.529E-01 0.000E+00

     total cpu time spent up to now is      184.7 secs

     total energy              =   -2848.25253044 Ry
     estimated scf accuracy    <       0.00705432 Ry

     iteration # 15     ecut=    30.00 Ry     beta= 0.40
     Davidson diagonalization with overlap
     ethr =  1.75E-06,  avg # of iterations =  3.0

     negative rho (up, down):  6.860E-01 0.000E+00

     total cpu time spent up to now is      196.4 secs

     total energy              =   -2848.24079610 Ry
     estimated scf accuracy    <       0.01023749 Ry

     iteration # 16     ecut=    30.00 Ry     beta= 0.40
     Davidson diagonalization with overlap
     ethr =  1.75E-06,  avg # of iterations =  2.0

     negative rho (up, down):  9.130E-01 0.000E+00

     total cpu time spent up to now is      208.1 secs

     total energy              =   -2848.18324049 Ry
     estimated scf accuracy    <       0.01359918 Ry

     iteration # 17     ecut=    30.00 Ry     beta= 0.40
     Davidson diagonalization with overlap
     ethr =  1.75E-06,  avg # of iterations =  3.0

     negative rho (up, down):  1.084E+00 0.000E+00

     total cpu time spent up to now is      219.8 secs

     total energy              =   -2848.13226592 Ry
     estimated scf accuracy    <       0.02261833 Ry

     iteration # 18     ecut=    30.00 Ry     beta= 0.40
     Davidson diagonalization with overlap
     ethr =  1.75E-06,  avg # of iterations =  2.0

     negative rho (up, down):  1.242E+00 0.000E+00

     total cpu time spent up to now is      231.5 secs

     total energy              =   -2848.07609883 Ry
     estimated scf accuracy    <       0.02911693 Ry

     iteration # 19     ecut=    30.00 Ry     beta= 0.40
     Davidson diagonalization with overlap
     ethr =  1.75E-06,  avg # of iterations =  2.0

     negative rho (up, down):  1.212E+00 0.000E+00

     total cpu time spent up to now is      243.1 secs

     total energy              =   -2848.09268451 Ry
     estimated scf accuracy    <       0.03590417 Ry

     iteration # 20     ecut=    30.00 Ry     beta= 0.40
     Davidson diagonalization with overlap
     ethr =  1.75E-06,  avg # of iterations =  2.0

     negative rho (up, down):  1.192E+00 0.000E+00

     total cpu time spent up to now is      254.9 secs

     total energy              =   -2848.10957052 Ry
     estimated scf accuracy    <       0.03576360 Ry

     iteration # 21     ecut=    30.00 Ry     beta= 0.40
     Davidson diagonalization with overlap
     ethr =  1.75E-06,  avg # of iterations =  2.0

     negative rho (up, down):  9.995E-01 0.000E+00

     total cpu time spent up to now is      266.6 secs

     total energy              =   -2848.21201439 Ry
     estimated scf accuracy    <       0.03469853 Ry

     iteration # 22     ecut=    30.00 Ry     beta= 0.40
     Davidson diagonalization with overlap
     ethr =  1.75E-06,  avg # of iterations =  3.0

     negative rho (up, down):  9.344E-01 0.000E+00

     total cpu time spent up to now is      278.4 secs

     total energy              =   -2848.28152986 Ry
     estimated scf accuracy    <       0.02505882 Ry

     iteration # 23     ecut=    30.00 Ry     beta= 0.40
     Davidson diagonalization with overlap
     ethr =  1.75E-06,  avg # of iterations =  3.0

     negative rho (up, down):  9.962E-01 0.000E+00

     total cpu time spent up to now is      290.1 secs

     total energy              =   -2848.30543219 Ry
     estimated scf accuracy    <       0.01647902 Ry

     iteration # 24     ecut=    30.00 Ry     beta= 0.40
     Davidson diagonalization with overlap
     ethr =  1.75E-06,  avg # of iterations =  3.0

     negative rho (up, down):  1.060E+00 0.000E+00

     total cpu time spent up to now is      301.8 secs

     total energy              =   -2848.29566186 Ry
     estimated scf accuracy    <       0.01233582 Ry

     iteration # 25     ecut=    30.00 Ry     beta= 0.40
     Davidson diagonalization with overlap
     ethr =  1.75E-06,  avg # of iterations =  2.0

     negative rho (up, down):  1.146E+00 0.000E+00

     total cpu time spent up to now is      313.6 secs

     total energy              =   -2848.28584394 Ry
     estimated scf accuracy    <       0.01544284 Ry

     iteration # 26     ecut=    30.00 Ry     beta= 0.40
     Davidson diagonalization with overlap
     ethr =  1.75E-06,  avg # of iterations =  2.0

     negative rho (up, down):  1.201E+00 0.000E+00

     total cpu time spent up to now is      325.2 secs

     total energy              =   -2848.26868603 Ry
     estimated scf accuracy    <       0.02040318 Ry

     iteration # 27     ecut=    30.00 Ry     beta= 0.40
     Davidson diagonalization with overlap
     ethr =  1.75E-06,  avg # of iterations =  4.0

     negative rho (up, down):  1.274E+00 0.000E+00

     total cpu time spent up to now is      337.1 secs

     total energy              =   -2848.27544060 Ry
     estimated scf accuracy    <       0.02421765 Ry

     iteration # 28     ecut=    30.00 Ry     beta= 0.40
     Davidson diagonalization with overlap
     ethr =  1.75E-06,  avg # of iterations =  4.0

     negative rho (up, down):  1.439E+00 0.000E+00

     total cpu time spent up to now is      348.8 secs

     total energy              =   -2848.23646999 Ry
     estimated scf accuracy    <       0.02827390 Ry

     iteration # 29     ecut=    30.00 Ry     beta= 0.40
     Davidson diagonalization with overlap
     c_bands:  1 eigenvalues not converged
     ethr =  1.75E-06,  avg # of iterations = 20.0

     negative rho (up, down):  1.492E+00 0.000E+00

     total cpu time spent up to now is      361.2 secs

     total energy              =   -2848.16995353 Ry
     estimated scf accuracy    <       0.06295859 Ry

     iteration # 30     ecut=    30.00 Ry     beta= 0.40
     Davidson diagonalization with overlap
     ethr =  1.75E-06,  avg # of iterations =  2.0

     negative rho (up, down):  1.416E+00 0.000E+00

     total cpu time spent up to now is      372.9 secs

     total energy              =   -2848.16930171 Ry
     estimated scf accuracy    <       0.05732264 Ry

     iteration # 31     ecut=    30.00 Ry     beta= 0.40
     Davidson diagonalization with overlap
     ethr =  1.75E-06,  avg # of iterations =  3.0

     negative rho (up, down):  1.435E+00 0.000E+00

     total cpu time spent up to now is      384.7 secs

     total energy              =   -2848.14984232 Ry
     estimated scf accuracy    <       0.04901766 Ry

     iteration # 32     ecut=    30.00 Ry     beta= 0.40
     Davidson diagonalization with overlap
     ethr =  1.75E-06,  avg # of iterations = 12.0

     negative rho (up, down):  1.300E+00 0.000E+00

     total cpu time spent up to now is      396.7 secs

     total energy              =   -2848.24732292 Ry
     estimated scf accuracy    <       0.03664153 Ry

     iteration # 33     ecut=    30.00 Ry     beta= 0.40
     Davidson diagonalization with overlap
     ethr =  1.75E-06,  avg # of iterations =  2.0

     negative rho (up, down):  1.303E+00 0.000E+00

     total cpu time spent up to now is      408.5 secs

     total energy              =   -2848.30156375 Ry
     estimated scf accuracy    <       0.01986819 Ry

     iteration # 34     ecut=    30.00 Ry     beta= 0.40
     Davidson diagonalization with overlap
     ethr =  1.75E-06,  avg # of iterations =  6.0

     negative rho (up, down):  1.347E+00 0.000E+00

     total cpu time spent up to now is      420.3 secs

     total energy              =   -2848.31468446 Ry
     estimated scf accuracy    <       0.04256498 Ry

     iteration # 35     ecut=    30.00 Ry     beta= 0.40
     Davidson diagonalization with overlap
     ethr =  1.75E-06,  avg # of iterations = 10.0

     negative rho (up, down):  1.347E+00 0.000E+00

     total cpu time spent up to now is      432.2 secs

     total energy              =   -2848.33699958 Ry
     estimated scf accuracy    <       0.02767846 Ry

     iteration # 36     ecut=    30.00 Ry     beta= 0.40
     Davidson diagonalization with overlap
     ethr =  1.75E-06,  avg # of iterations =  9.0

     negative rho (up, down):  1.370E+00 0.000E+00

     total cpu time spent up to now is      444.2 secs

     total energy              =   -2848.34945368 Ry
     estimated scf accuracy    <       0.04331646 Ry

     iteration # 37     ecut=    30.00 Ry     beta= 0.40
     Davidson diagonalization with overlap
     c_bands:  1 eigenvalues not converged
     ethr =  1.75E-06,  avg # of iterations = 20.0

     negative rho (up, down):  1.387E+00 0.000E+00

     total cpu time spent up to now is      456.4 secs

     total energy              =   -2848.36010896 Ry
     estimated scf accuracy    <       0.00916558 Ry

     iteration # 38     ecut=    30.00 Ry     beta= 0.40
     Davidson diagonalization with overlap
     ethr =  1.75E-06,  avg # of iterations = 18.0

     negative rho (up, down):  1.409E+00 0.000E+00

     total cpu time spent up to now is      468.7 secs

     total energy              =   -2848.36758236 Ry
     estimated scf accuracy    <       0.00585622 Ry

     iteration # 39     ecut=    30.00 Ry     beta= 0.40
     Davidson diagonalization with overlap
     ethr =  1.75E-06,  avg # of iterations =  3.0

     negative rho (up, down):  1.437E+00 0.000E+00

     total cpu time spent up to now is      480.5 secs

     total energy              =   -2848.37240868 Ry
     estimated scf accuracy    <       0.00443260 Ry

     iteration # 40     ecut=    30.00 Ry     beta= 0.40
     Davidson diagonalization with overlap
     ethr =  1.75E-06,  avg # of iterations =  2.0

     negative rho (up, down):  1.459E+00 0.000E+00

     total cpu time spent up to now is      492.1 secs

     total energy              =   -2848.37411066 Ry
     estimated scf accuracy    <       0.00326487 Ry

     iteration # 41     ecut=    30.00 Ry     beta= 0.40
     Davidson diagonalization with overlap
     ethr =  1.51E-06,  avg # of iterations =  2.0

     negative rho (up, down):  1.483E+00 0.000E+00

     total cpu time spent up to now is      503.7 secs

     total energy              =   -2848.37513259 Ry
     estimated scf accuracy    <       0.00136156 Ry

     iteration # 42     ecut=    30.00 Ry     beta= 0.40
     Davidson diagonalization with overlap
     ethr =  6.30E-07,  avg # of iterations =  3.0

     negative rho (up, down):  1.502E+00 0.000E+00

     total cpu time spent up to now is      515.4 secs

     total energy              =   -2848.37576095 Ry
     estimated scf accuracy    <       0.00176146 Ry

     iteration # 43     ecut=    30.00 Ry     beta= 0.40
     Davidson diagonalization with overlap
     ethr =  6.30E-07,  avg # of iterations =  2.0

     negative rho (up, down):  1.517E+00 0.000E+00

     total cpu time spent up to now is      527.1 secs

     total energy              =   -2848.37637879 Ry
     estimated scf accuracy    <       0.00034321 Ry

     iteration # 44     ecut=    30.00 Ry     beta= 0.40
     Davidson diagonalization with overlap
     ethr =  1.59E-07,  avg # of iterations =  3.0

     negative rho (up, down):  1.531E+00 0.000E+00

     total cpu time spent up to now is      538.9 secs

     total energy              =   -2848.37672898 Ry
     estimated scf accuracy    <       0.00019561 Ry

     iteration # 45     ecut=    30.00 Ry     beta= 0.40
     Davidson diagonalization with overlap
     ethr =  9.06E-08,  avg # of iterations =  3.0

     negative rho (up, down):  1.544E+00 0.000E+00

     total cpu time spent up to now is      550.7 secs

     total energy              =   -2848.37673768 Ry
     estimated scf accuracy    <       0.00022048 Ry

     iteration # 46     ecut=    30.00 Ry     beta= 0.40
     Davidson diagonalization with overlap
     ethr =  9.06E-08,  avg # of iterations =  2.0

     negative rho (up, down):  1.551E+00 0.000E+00

     total cpu time spent up to now is      562.4 secs

     total energy              =   -2848.37714714 Ry
     estimated scf accuracy    <       0.00004809 Ry

     iteration # 47     ecut=    30.00 Ry     beta= 0.40
     Davidson diagonalization with overlap
     ethr =  2.23E-08,  avg # of iterations =  5.0

     negative rho (up, down):  1.557E+00 0.000E+00

     total cpu time spent up to now is      574.2 secs

     total energy              =   -2848.37747578 Ry
     estimated scf accuracy    <       0.00013494 Ry

     iteration # 48     ecut=    30.00 Ry     beta= 0.40
     Davidson diagonalization with overlap
     ethr =  2.23E-08,  avg # of iterations =  3.0

     negative rho (up, down):  1.564E+00 0.000E+00

     total cpu time spent up to now is      585.9 secs

     total energy              =   -2848.37770681 Ry
     estimated scf accuracy    <       0.00007871 Ry

     iteration # 49     ecut=    30.00 Ry     beta= 0.40
     Davidson diagonalization with overlap
     ethr =  2.23E-08,  avg # of iterations =  3.0

     negative rho (up, down):  1.569E+00 0.000E+00

     total cpu time spent up to now is      597.6 secs

     total energy              =   -2848.37787780 Ry
     estimated scf accuracy    <       0.00007576 Ry

     iteration # 50     ecut=    30.00 Ry     beta= 0.40
     Davidson diagonalization with overlap
     ethr =  2.23E-08,  avg # of iterations =  3.0

     negative rho (up, down):  1.574E+00 0.000E+00

     total cpu time spent up to now is      609.3 secs

     total energy              =   -2848.37801986 Ry
     estimated scf accuracy    <       0.00009058 Ry

     iteration # 51     ecut=    30.00 Ry     beta= 0.40
     Davidson diagonalization with overlap
     ethr =  2.23E-08,  avg # of iterations =  3.0

     negative rho (up, down):  1.576E+00 0.000E+00

     total cpu time spent up to now is      621.1 secs

     total energy              =   -2848.37803854 Ry
     estimated scf accuracy    <       0.00014324 Ry

     iteration # 52     ecut=    30.00 Ry     beta= 0.40
     Davidson diagonalization with overlap
     ethr =  2.23E-08,  avg # of iterations =  3.0

     negative rho (up, down):  1.580E+00 0.000E+00

     total cpu time spent up to now is      632.9 secs

     total energy              =   -2848.37743223 Ry
     estimated scf accuracy    <       0.00021595 Ry

     iteration # 53     ecut=    30.00 Ry     beta= 0.40
     Davidson diagonalization with overlap
     ethr =  2.23E-08,  avg # of iterations =  3.0

     negative rho (up, down):  1.584E+00 0.000E+00

     total cpu time spent up to now is      644.6 secs

     total energy              =   -2848.37482650 Ry
     estimated scf accuracy    <       0.00036405 Ry

     iteration # 54     ecut=    30.00 Ry     beta= 0.40
     Davidson diagonalization with overlap
     ethr =  2.23E-08,  avg # of iterations =  3.0

     negative rho (up, down):  1.588E+00 0.000E+00

     total cpu time spent up to now is      656.3 secs

     total energy              =   -2848.37388060 Ry
     estimated scf accuracy    <       0.00081296 Ry

     iteration # 55     ecut=    30.00 Ry     beta= 0.40
     Davidson diagonalization with overlap
     ethr =  2.23E-08,  avg # of iterations =  3.0

     negative rho (up, down):  1.589E+00 0.000E+00

     total cpu time spent up to now is      668.1 secs

     total energy              =   -2848.37500415 Ry
     estimated scf accuracy    <       0.00097956 Ry

     iteration # 56     ecut=    30.00 Ry     beta= 0.40
     Davidson diagonalization with overlap
     ethr =  2.23E-08,  avg # of iterations =  3.0

     negative rho (up, down):  1.591E+00 0.000E+00

     total cpu time spent up to now is      679.8 secs

     total energy              =   -2848.37473398 Ry
     estimated scf accuracy    <       0.00084359 Ry

     iteration # 57     ecut=    30.00 Ry     beta= 0.40
     Davidson diagonalization with overlap
     ethr =  2.23E-08,  avg # of iterations =  3.0

     negative rho (up, down):  1.593E+00 0.000E+00

     total cpu time spent up to now is      691.5 secs

     total energy              =   -2848.37477542 Ry
     estimated scf accuracy    <       0.00090112 Ry

     iteration # 58     ecut=    30.00 Ry     beta= 0.40
     Davidson diagonalization with overlap
     ethr =  2.23E-08,  avg # of iterations =  3.0

     negative rho (up, down):  1.596E+00 0.000E+00

     total cpu time spent up to now is      703.2 secs

     total energy              =   -2848.37358377 Ry
     estimated scf accuracy    <       0.00090046 Ry

     iteration # 59     ecut=    30.00 Ry     beta= 0.40
     Davidson diagonalization with overlap
     ethr =  2.23E-08,  avg # of iterations =  3.0

     negative rho (up, down):  1.599E+00 0.000E+00

     total cpu time spent up to now is      714.9 secs

     total energy              =   -2848.37222528 Ry
     estimated scf accuracy    <       0.00109890 Ry

     iteration # 60     ecut=    30.00 Ry     beta= 0.40
     Davidson diagonalization with overlap
     ethr =  2.23E-08,  avg # of iterations =  8.0

     negative rho (up, down):  1.599E+00 0.000E+00

     total cpu time spent up to now is      726.7 secs

     total energy              =   -2848.37297088 Ry
     estimated scf accuracy    <       0.00214077 Ry

     iteration # 61     ecut=    30.00 Ry     beta= 0.40
     Davidson diagonalization with overlap
     ethr =  2.23E-08,  avg # of iterations =  8.0

     negative rho (up, down):  1.606E+00 0.000E+00

     total cpu time spent up to now is      738.6 secs

     total energy              =   -2848.36870510 Ry
     estimated scf accuracy    <       0.00133639 Ry

     iteration # 62     ecut=    30.00 Ry     beta= 0.40
     Davidson diagonalization with overlap
     ethr =  2.23E-08,  avg # of iterations =  5.0

     negative rho (up, down):  1.600E+00 0.000E+00

     total cpu time spent up to now is      750.4 secs

     total energy              =   -2848.37289613 Ry
     estimated scf accuracy    <       0.00220021 Ry

     iteration # 63     ecut=    30.00 Ry     beta= 0.40
     Davidson diagonalization with overlap
     ethr =  2.23E-08,  avg # of iterations =  7.0

     negative rho (up, down):  1.602E+00 0.000E+00

     total cpu time spent up to now is      762.3 secs

     total energy              =   -2848.37179298 Ry
     estimated scf accuracy    <       0.00203151 Ry

     iteration # 64     ecut=    30.00 Ry     beta= 0.40
     Davidson diagonalization with overlap
     ethr =  2.23E-08,  avg # of iterations =  7.0

     negative rho (up, down):  1.613E+00 0.000E+00

     total cpu time spent up to now is      774.3 secs

     total energy              =   -2848.36314889 Ry
     estimated scf accuracy    <       0.00246226 Ry

     iteration # 65     ecut=    30.00 Ry     beta= 0.40
     Davidson diagonalization with overlap
     ethr =  2.23E-08,  avg # of iterations =  9.0

     negative rho (up, down):  1.608E+00 0.000E+00

     total cpu time spent up to now is      786.4 secs

     total energy              =   -2848.36716025 Ry
     estimated scf accuracy    <       0.00297721 Ry

     iteration # 66     ecut=    30.00 Ry     beta= 0.40
     Davidson diagonalization with overlap
     ethr =  2.23E-08,  avg # of iterations =  6.0

     negative rho (up, down):  1.600E+00 0.000E+00

     total cpu time spent up to now is      798.3 secs

     total energy              =   -2848.37300936 Ry
     estimated scf accuracy    <       0.00274373 Ry

     iteration # 67     ecut=    30.00 Ry     beta= 0.40
     Davidson diagonalization with overlap
     ethr =  2.23E-08,  avg # of iterations =  7.0

     negative rho (up, down):  1.599E+00 0.000E+00

     total cpu time spent up to now is      810.2 secs

     total energy              =   -2848.37471072 Ry
     estimated scf accuracy    <       0.00145691 Ry

     iteration # 68     ecut=    30.00 Ry     beta= 0.40
     Davidson diagonalization with overlap
     ethr =  2.23E-08,  avg # of iterations =  6.0

     negative rho (up, down):  1.594E+00 0.000E+00

     total cpu time spent up to now is      822.1 secs

     total energy              =   -2848.37973194 Ry
     estimated scf accuracy    <       0.00207222 Ry

     iteration # 69     ecut=    30.00 Ry     beta= 0.40
     Davidson diagonalization with overlap
     ethr =  2.23E-08,  avg # of iterations =  8.0

     negative rho (up, down):  1.593E+00 0.000E+00

     total cpu time spent up to now is      834.2 secs

     total energy              =   -2848.38062848 Ry
     estimated scf accuracy    <       0.00125744 Ry

     iteration # 70     ecut=    30.00 Ry     beta= 0.40
     Davidson diagonalization with overlap
     ethr =  2.23E-08,  avg # of iterations =  7.0

     negative rho (up, down):  1.594E+00 0.000E+00

     total cpu time spent up to now is      846.2 secs

     total energy              =   -2848.38065736 Ry
     estimated scf accuracy    <       0.00020001 Ry

     iteration # 71     ecut=    30.00 Ry     beta= 0.40
     Davidson diagonalization with overlap
     ethr =  2.23E-08,  avg # of iterations =  7.0

     negative rho (up, down):  1.595E+00 0.000E+00

     total cpu time spent up to now is      858.2 secs

     total energy              =   -2848.38101842 Ry
     estimated scf accuracy    <       0.00065540 Ry

     iteration # 72     ecut=    30.00 Ry     beta= 0.40
     Davidson diagonalization with overlap
     ethr =  2.23E-08,  avg # of iterations =  5.0

     negative rho (up, down):  1.596E+00 0.000E+00

     total cpu time spent up to now is      870.0 secs

     total energy              =   -2848.38115076 Ry
     estimated scf accuracy    <       0.00020147 Ry

     iteration # 73     ecut=    30.00 Ry     beta= 0.40
     Davidson diagonalization with overlap
     ethr =  2.23E-08,  avg # of iterations =  6.0

     negative rho (up, down):  1.597E+00 0.000E+00

     total cpu time spent up to now is      881.8 secs

     total energy              =   -2848.38126092 Ry
     estimated scf accuracy    <       0.00022597 Ry

     iteration # 74     ecut=    30.00 Ry     beta= 0.40
     Davidson diagonalization with overlap
     ethr =  2.23E-08,  avg # of iterations =  6.0

     negative rho (up, down):  1.598E+00 0.000E+00

     total cpu time spent up to now is      893.6 secs

     total energy              =   -2848.38129792 Ry
     estimated scf accuracy    <       0.00006563 Ry

     iteration # 75     ecut=    30.00 Ry     beta= 0.40
     Davidson diagonalization with overlap
     ethr =  2.23E-08,  avg # of iterations =  3.0

     negative rho (up, down):  1.599E+00 0.000E+00

     total cpu time spent up to now is      905.4 secs

     total energy              =   -2848.38144517 Ry
     estimated scf accuracy    <       0.00008655 Ry

     iteration # 76     ecut=    30.00 Ry     beta= 0.40
     Davidson diagonalization with overlap
     ethr =  2.23E-08,  avg # of iterations =  3.0

     negative rho (up, down):  1.599E+00 0.000E+00

     total cpu time spent up to now is      917.2 secs

     total energy              =   -2848.38151827 Ry
     estimated scf accuracy    <       0.00004810 Ry

     iteration # 77     ecut=    30.00 Ry     beta= 0.40
     Davidson diagonalization with overlap
     ethr =  2.23E-08,  avg # of iterations =  3.0

     negative rho (up, down):  1.600E+00 0.000E+00

     total cpu time spent up to now is      928.9 secs

     total energy              =   -2848.38164721 Ry
     estimated scf accuracy    <       0.00009529 Ry

     iteration # 78     ecut=    30.00 Ry     beta= 0.40
     Davidson diagonalization with overlap
     ethr =  2.23E-08,  avg # of iterations =  3.0

     negative rho (up, down):  1.602E+00 0.000E+00

     total cpu time spent up to now is      940.7 secs

     total energy              =   -2848.38128780 Ry
     estimated scf accuracy    <       0.00003467 Ry

     iteration # 79     ecut=    30.00 Ry     beta= 0.40
     Davidson diagonalization with overlap
     ethr =  1.61E-08,  avg # of iterations =  3.0

     negative rho (up, down):  1.602E+00 0.000E+00

     total cpu time spent up to now is      952.4 secs

     total energy              =   -2848.38175624 Ry
     estimated scf accuracy    <       0.00001190 Ry

     iteration # 80     ecut=    30.00 Ry     beta= 0.40
     Davidson diagonalization with overlap
     ethr =  5.51E-09,  avg # of iterations =  3.0

     negative rho (up, down):  1.602E+00 0.000E+00

     total cpu time spent up to now is      964.3 secs

     total energy              =   -2848.38179340 Ry
     estimated scf accuracy    <       0.00000952 Ry

     iteration # 81     ecut=    30.00 Ry     beta= 0.40
     Davidson diagonalization with overlap
     ethr =  4.41E-09,  avg # of iterations =  3.0

     negative rho (up, down):  1.603E+00 0.000E+00

     total cpu time spent up to now is      976.0 secs

     total energy              =   -2848.38192347 Ry
     estimated scf accuracy    <       0.00000399 Ry

     iteration # 82     ecut=    30.00 Ry     beta= 0.40
     Davidson diagonalization with overlap
     ethr =  1.85E-09,  avg # of iterations =  3.0

     negative rho (up, down):  1.603E+00 0.000E+00

     total cpu time spent up to now is      987.8 secs

     total energy              =   -2848.38198262 Ry
     estimated scf accuracy    <       0.00000893 Ry

     iteration # 83     ecut=    30.00 Ry     beta= 0.40
     Davidson diagonalization with overlap
     ethr =  1.85E-09,  avg # of iterations =  3.0

     negative rho (up, down):  1.604E+00 0.000E+00

     total cpu time spent up to now is      999.6 secs

     total energy              =   -2848.38207479 Ry
     estimated scf accuracy    <       0.00004666 Ry

     iteration # 84     ecut=    30.00 Ry     beta= 0.40
     Davidson diagonalization with overlap
     ethr =  1.85E-09,  avg # of iterations =  3.0

     negative rho (up, down):  1.605E+00 0.000E+00

     total cpu time spent up to now is     1011.3 secs

     total energy              =   -2848.38215744 Ry
     estimated scf accuracy    <       0.00003754 Ry

     iteration # 85     ecut=    30.00 Ry     beta= 0.40
     Davidson diagonalization with overlap
     ethr =  1.85E-09,  avg # of iterations =  3.0

     negative rho (up, down):  1.606E+00 0.000E+00

     total cpu time spent up to now is     1023.2 secs

     total energy              =   -2848.38220728 Ry
     estimated scf accuracy    <       0.00002808 Ry

     iteration # 86     ecut=    30.00 Ry     beta= 0.40
     Davidson diagonalization with overlap
     ethr =  1.85E-09,  avg # of iterations =  3.0

     negative rho (up, down):  1.606E+00 0.000E+00

     total cpu time spent up to now is     1034.9 secs

     total energy              =   -2848.38213933 Ry
     estimated scf accuracy    <       0.00003598 Ry

     iteration # 87     ecut=    30.00 Ry     beta= 0.40
     Davidson diagonalization with overlap
     ethr =  1.85E-09,  avg # of iterations =  3.0

     negative rho (up, down):  1.607E+00 0.000E+00

     total cpu time spent up to now is     1046.7 secs

     total energy              =   -2848.38219938 Ry
     estimated scf accuracy    <       0.00007388 Ry

     iteration # 88     ecut=    30.00 Ry     beta= 0.40
     Davidson diagonalization with overlap
     ethr =  1.85E-09,  avg # of iterations =  3.0

     negative rho (up, down):  1.607E+00 0.000E+00

     total cpu time spent up to now is     1058.5 secs

     total energy              =   -2848.38223944 Ry
     estimated scf accuracy    <       0.00007418 Ry

     iteration # 89     ecut=    30.00 Ry     beta= 0.40
     Davidson diagonalization with overlap
     ethr =  1.85E-09,  avg # of iterations =  3.0

     negative rho (up, down):  1.608E+00 0.000E+00

     total cpu time spent up to now is     1070.3 secs

     total energy              =   -2848.38212748 Ry
     estimated scf accuracy    <       0.00007752 Ry

     iteration # 90     ecut=    30.00 Ry     beta= 0.40
     Davidson diagonalization with overlap
     ethr =  1.85E-09,  avg # of iterations =  3.0

     negative rho (up, down):  1.609E+00 0.000E+00

     total cpu time spent up to now is     1082.0 secs

     total energy              =   -2848.38192773 Ry
     estimated scf accuracy    <       0.00011138 Ry

     iteration # 91     ecut=    30.00 Ry     beta= 0.40
     Davidson diagonalization with overlap
     ethr =  1.85E-09,  avg # of iterations =  3.0

     negative rho (up, down):  1.609E+00 0.000E+00

     total cpu time spent up to now is     1093.9 secs

     total energy              =   -2848.38188353 Ry
     estimated scf accuracy    <       0.00015627 Ry

     iteration # 92     ecut=    30.00 Ry     beta= 0.40
     Davidson diagonalization with overlap
     ethr =  1.85E-09,  avg # of iterations =  3.0

     negative rho (up, down):  1.610E+00 0.000E+00

     total cpu time spent up to now is     1105.6 secs

     total energy              =   -2848.38169510 Ry
     estimated scf accuracy    <       0.00017205 Ry

     iteration # 93     ecut=    30.00 Ry     beta= 0.40
     Davidson diagonalization with overlap
     ethr =  1.85E-09,  avg # of iterations =  3.0

     negative rho (up, down):  1.611E+00 0.000E+00

     total cpu time spent up to now is     1117.4 secs

     total energy              =   -2848.38145511 Ry
     estimated scf accuracy    <       0.00020970 Ry

     iteration # 94     ecut=    30.00 Ry     beta= 0.40
     Davidson diagonalization with overlap
     ethr =  1.85E-09,  avg # of iterations =  3.0

     negative rho (up, down):  1.612E+00 0.000E+00

     total cpu time spent up to now is     1129.2 secs

     total energy              =   -2848.38107861 Ry
     estimated scf accuracy    <       0.00025332 Ry

     iteration # 95     ecut=    30.00 Ry     beta= 0.40
     Davidson diagonalization with overlap
     ethr =  1.85E-09,  avg # of iterations =  3.0

     negative rho (up, down):  1.612E+00 0.000E+00

     total cpu time spent up to now is     1140.9 secs

     total energy              =   -2848.38087478 Ry
     estimated scf accuracy    <       0.00031496 Ry

     iteration # 96     ecut=    30.00 Ry     beta= 0.40
     Davidson diagonalization with overlap
     ethr =  1.85E-09,  avg # of iterations =  3.0

     negative rho (up, down):  1.612E+00 0.000E+00

     total cpu time spent up to now is     1152.8 secs

     total energy              =   -2848.38113555 Ry
     estimated scf accuracy    <       0.00035192 Ry

     iteration # 97     ecut=    30.00 Ry     beta= 0.40
     Davidson diagonalization with overlap
     ethr =  1.85E-09,  avg # of iterations =  3.0

     negative rho (up, down):  1.613E+00 0.000E+00

     total cpu time spent up to now is     1164.5 secs

     total energy              =   -2848.38099788 Ry
     estimated scf accuracy    <       0.00031781 Ry

     iteration # 98     ecut=    30.00 Ry     beta= 0.40
     Davidson diagonalization with overlap
     ethr =  1.85E-09,  avg # of iterations =  3.0

     negative rho (up, down):  1.613E+00 0.000E+00

     total cpu time spent up to now is     1176.3 secs

     total energy              =   -2848.38122063 Ry
     estimated scf accuracy    <       0.00034220 Ry

     iteration # 99     ecut=    30.00 Ry     beta= 0.40
     Davidson diagonalization with overlap
     ethr =  1.85E-09,  avg # of iterations =  3.0

     negative rho (up, down):  1.614E+00 0.000E+00

     total cpu time spent up to now is     1188.0 secs

     total energy              =   -2848.38133097 Ry
     estimated scf accuracy    <       0.00031588 Ry

     iteration #100     ecut=    30.00 Ry     beta= 0.40
     Davidson diagonalization with overlap
     ethr =  1.85E-09,  avg # of iterations =  3.0

     negative rho (up, down):  1.614E+00 0.000E+00

     total cpu time spent up to now is     1199.9 secs

     total energy              =   -2848.38133416 Ry
     estimated scf accuracy    <       0.00030572 Ry

     iteration #101     ecut=    30.00 Ry     beta= 0.40
     Davidson diagonalization with overlap
     ethr =  1.85E-09,  avg # of iterations =  3.0

     negative rho (up, down):  1.614E+00 0.000E+00

     total cpu time spent up to now is     1211.6 secs

     total energy              =   -2848.38200412 Ry
     estimated scf accuracy    <       0.00030891 Ry

     iteration #102     ecut=    30.00 Ry     beta= 0.40
     Davidson diagonalization with overlap
     ethr =  1.85E-09,  avg # of iterations =  3.0

     negative rho (up, down):  1.615E+00 0.000E+00

     total cpu time spent up to now is     1223.4 secs

     total energy              =   -2848.38175429 Ry
     estimated scf accuracy    <       0.00022031 Ry

     iteration #103     ecut=    30.00 Ry     beta= 0.40
     Davidson diagonalization with overlap
     ethr =  1.85E-09,  avg # of iterations =  3.0

     negative rho (up, down):  1.615E+00 0.000E+00

     total cpu time spent up to now is     1235.2 secs

     total energy              =   -2848.38231308 Ry
     estimated scf accuracy    <       0.00026065 Ry

     iteration #104     ecut=    30.00 Ry     beta= 0.40
     Davidson diagonalization with overlap
     ethr =  1.85E-09,  avg # of iterations =  9.0

     negative rho (up, down):  1.615E+00 0.000E+00

     total cpu time spent up to now is     1247.4 secs

     total energy              =   -2848.38292080 Ry
     estimated scf accuracy    <       0.00057164 Ry

     iteration #105     ecut=    30.00 Ry     beta= 0.40
     Davidson diagonalization with overlap
     ethr =  1.85E-09,  avg # of iterations = 11.0

     negative rho (up, down):  1.615E+00 0.000E+00

     total cpu time spent up to now is     1259.4 secs

     total energy              =   -2848.38324993 Ry
     estimated scf accuracy    <       0.00001100 Ry

     iteration #106     ecut=    30.00 Ry     beta= 0.40
     Davidson diagonalization with overlap
     ethr =  1.85E-09,  avg # of iterations =  6.0

     negative rho (up, down):  1.615E+00 0.000E+00

     total cpu time spent up to now is     1271.3 secs

     total energy              =   -2848.38319799 Ry
     estimated scf accuracy    <       0.00002129 Ry

     iteration #107     ecut=    30.00 Ry     beta= 0.40
     Davidson diagonalization with overlap
     ethr =  1.85E-09,  avg # of iterations =  5.0

     negative rho (up, down):  1.616E+00 0.000E+00

     total cpu time spent up to now is     1283.2 secs

     total energy              =   -2848.38319885 Ry
     estimated scf accuracy    <       0.00004568 Ry

     iteration #108     ecut=    30.00 Ry     beta= 0.40
     Davidson diagonalization with overlap
     ethr =  1.85E-09,  avg # of iterations =  3.0

     negative rho (up, down):  1.616E+00 0.000E+00

     total cpu time spent up to now is     1295.0 secs

     total energy              =   -2848.38335133 Ry
     estimated scf accuracy    <       0.00005079 Ry

     iteration #109     ecut=    30.00 Ry     beta= 0.40
     Davidson diagonalization with overlap
     ethr =  1.85E-09,  avg # of iterations =  3.0

     negative rho (up, down):  1.617E+00 0.000E+00

     total cpu time spent up to now is     1306.8 secs

     total energy              =   -2848.38335878 Ry
     estimated scf accuracy    <       0.00002191 Ry

     iteration #110     ecut=    30.00 Ry     beta= 0.40
     Davidson diagonalization with overlap
     ethr =  1.85E-09,  avg # of iterations =  3.0

     negative rho (up, down):  1.617E+00 0.000E+00

     total cpu time spent up to now is     1318.5 secs

     total energy              =   -2848.38330449 Ry
     estimated scf accuracy    <       0.00002721 Ry

     iteration #111     ecut=    30.00 Ry     beta= 0.40
     Davidson diagonalization with overlap
     ethr =  1.85E-09,  avg # of iterations =  3.0

     negative rho (up, down):  1.618E+00 0.000E+00

     total cpu time spent up to now is     1330.3 secs

     total energy              =   -2848.38323507 Ry
     estimated scf accuracy    <       0.00005126 Ry

     iteration #112     ecut=    30.00 Ry     beta= 0.40
     Davidson diagonalization with overlap
     ethr =  1.85E-09,  avg # of iterations =  3.0

     negative rho (up, down):  1.618E+00 0.000E+00

     total cpu time spent up to now is     1342.0 secs

     total energy              =   -2848.38313791 Ry
     estimated scf accuracy    <       0.00006848 Ry

     iteration #113     ecut=    30.00 Ry     beta= 0.40
     Davidson diagonalization with overlap
     ethr =  1.85E-09,  avg # of iterations =  3.0

     negative rho (up, down):  1.619E+00 0.000E+00

     total cpu time spent up to now is     1353.8 secs

     total energy              =   -2848.38301767 Ry
     estimated scf accuracy    <       0.00009079 Ry

     iteration #114     ecut=    30.00 Ry     beta= 0.40
     Davidson diagonalization with overlap
     ethr =  1.85E-09,  avg # of iterations =  3.0

     negative rho (up, down):  1.619E+00 0.000E+00

     total cpu time spent up to now is     1365.5 secs

     total energy              =   -2848.38288316 Ry
     estimated scf accuracy    <       0.00011439 Ry

     iteration #115     ecut=    30.00 Ry     beta= 0.40
     Davidson diagonalization with overlap
     ethr =  1.85E-09,  avg # of iterations =  3.0

     negative rho (up, down):  1.620E+00 0.000E+00

     total cpu time spent up to now is     1377.3 secs

     total energy              =   -2848.38270254 Ry
     estimated scf accuracy    <       0.00013871 Ry

     iteration #116     ecut=    30.00 Ry     beta= 0.40
     Davidson diagonalization with overlap
     ethr =  1.85E-09,  avg # of iterations =  3.0

     negative rho (up, down):  1.621E+00 0.000E+00

     total cpu time spent up to now is     1389.1 secs

     total energy              =   -2848.38245531 Ry
     estimated scf accuracy    <       0.00016943 Ry

     iteration #117     ecut=    30.00 Ry     beta= 0.40
     Davidson diagonalization with overlap
     ethr =  1.85E-09,  avg # of iterations =  3.0

     negative rho (up, down):  1.621E+00 0.000E+00

     total cpu time spent up to now is     1400.8 secs

     total energy              =   -2848.38211455 Ry
     estimated scf accuracy    <       0.00020856 Ry

     iteration #118     ecut=    30.00 Ry     beta= 0.40
     Davidson diagonalization with overlap
     ethr =  1.85E-09,  avg # of iterations =  3.0

     negative rho (up, down):  1.622E+00 0.000E+00

     total cpu time spent up to now is     1412.5 secs

     total energy              =   -2848.38181987 Ry
     estimated scf accuracy    <       0.00025948 Ry

     iteration #119     ecut=    30.00 Ry     beta= 0.40
     Davidson diagonalization with overlap
     ethr =  1.85E-09,  avg # of iterations =  3.0

     negative rho (up, down):  1.623E+00 0.000E+00

     total cpu time spent up to now is     1424.3 secs

     total energy              =   -2848.38143344 Ry
     estimated scf accuracy    <       0.00030252 Ry

     iteration #120     ecut=    30.00 Ry     beta= 0.40
     Davidson diagonalization with overlap
     ethr =  1.85E-09,  avg # of iterations =  3.0

     negative rho (up, down):  1.624E+00 0.000E+00

     total cpu time spent up to now is     1436.0 secs

     total energy              =   -2848.38094886 Ry
     estimated scf accuracy    <       0.00035635 Ry

     iteration #121     ecut=    30.00 Ry     beta= 0.40
     Davidson diagonalization with overlap
     ethr =  1.85E-09,  avg # of iterations =  3.0

     negative rho (up, down):  1.624E+00 0.000E+00

     total cpu time spent up to now is     1447.7 secs

     total energy              =   -2848.38113380 Ry
     estimated scf accuracy    <       0.00042307 Ry

     iteration #122     ecut=    30.00 Ry     beta= 0.40
     Davidson diagonalization with overlap
     ethr =  1.85E-09,  avg # of iterations =  3.0

     negative rho (up, down):  1.624E+00 0.000E+00

     total cpu time spent up to now is     1459.5 secs

     total energy              =   -2848.38086155 Ry
     estimated scf accuracy    <       0.00040270 Ry

     iteration #123     ecut=    30.00 Ry     beta= 0.40
     Davidson diagonalization with overlap
     ethr =  1.85E-09,  avg # of iterations =  3.0

     negative rho (up, down):  1.625E+00 0.000E+00

     total cpu time spent up to now is     1471.2 secs

     total energy              =   -2848.38057401 Ry
     estimated scf accuracy    <       0.00044083 Ry

     iteration #124     ecut=    30.00 Ry     beta= 0.40
     Davidson diagonalization with overlap
     ethr =  1.85E-09,  avg # of iterations =  3.0

     negative rho (up, down):  1.626E+00 0.000E+00

     total cpu time spent up to now is     1483.0 secs

     total energy              =   -2848.38024164 Ry
     estimated scf accuracy    <       0.00047873 Ry

     iteration #125     ecut=    30.00 Ry     beta= 0.40
     Davidson diagonalization with overlap
     ethr =  1.85E-09,  avg # of iterations =  3.0

     negative rho (up, down):  1.626E+00 0.000E+00

     total cpu time spent up to now is     1494.8 secs

     total energy              =   -2848.37975941 Ry
     estimated scf accuracy    <       0.00052658 Ry

     iteration #126     ecut=    30.00 Ry     beta= 0.40
     Davidson diagonalization with overlap
     ethr =  1.85E-09,  avg # of iterations =  3.0

     negative rho (up, down):  1.627E+00 0.000E+00

     total cpu time spent up to now is     1506.7 secs

     total energy              =   -2848.37920827 Ry
     estimated scf accuracy    <       0.00058943 Ry

     iteration #127     ecut=    30.00 Ry     beta= 0.40
     Davidson diagonalization with overlap
     ethr =  1.85E-09,  avg # of iterations =  3.0

     negative rho (up, down):  1.628E+00 0.000E+00

     total cpu time spent up to now is     1518.4 secs

     total energy              =   -2848.37876643 Ry
     estimated scf accuracy    <       0.00065775 Ry

     iteration #128     ecut=    30.00 Ry     beta= 0.40
     Davidson diagonalization with overlap
     ethr =  1.85E-09,  avg # of iterations =  5.0

     negative rho (up, down):  1.628E+00 0.000E+00

     total cpu time spent up to now is     1530.3 secs

     total energy              =   -2848.37837712 Ry
     estimated scf accuracy    <       0.00076665 Ry

     iteration #129     ecut=    30.00 Ry     beta= 0.40
     Davidson diagonalization with overlap
     ethr =  1.85E-09,  avg # of iterations =  6.0

     negative rho (up, down):  1.628E+00 0.000E+00

     total cpu time spent up to now is     1542.2 secs

     total energy              =   -2848.37909328 Ry
     estimated scf accuracy    <       0.00083888 Ry

     iteration #130     ecut=    30.00 Ry     beta= 0.40
     Davidson diagonalization with overlap
     ethr =  1.85E-09,  avg # of iterations = 10.0

     negative rho (up, down):  1.630E+00 0.000E+00

     total cpu time spent up to now is     1554.4 secs

     total energy              =   -2848.37725863 Ry
     estimated scf accuracy    <       0.00079273 Ry

     iteration #131     ecut=    30.00 Ry     beta= 0.40
     Davidson diagonalization with overlap
     ethr =  1.85E-09,  avg # of iterations =  8.0

     negative rho (up, down):  1.630E+00 0.000E+00

     total cpu time spent up to now is     1566.6 secs

     total energy              =   -2848.37689055 Ry
     estimated scf accuracy    <       0.00093153 Ry

     iteration #132     ecut=    30.00 Ry     beta= 0.40
     Davidson diagonalization with overlap
     ethr =  1.85E-09,  avg # of iterations =  6.0

     negative rho (up, down):  1.631E+00 0.000E+00

     total cpu time spent up to now is     1578.4 secs

     total energy              =   -2848.37643614 Ry
     estimated scf accuracy    <       0.00094946 Ry

     iteration #133     ecut=    30.00 Ry     beta= 0.40
     Davidson diagonalization with overlap
     ethr =  1.85E-09,  avg # of iterations =  6.0

     negative rho (up, down):  1.633E+00 0.000E+00

     total cpu time spent up to now is     1590.3 secs

     total energy              =   -2848.37505575 Ry
     estimated scf accuracy    <       0.00104284 Ry

     iteration #134     ecut=    30.00 Ry     beta= 0.40
     Davidson diagonalization with overlap
     ethr =  1.85E-09,  avg # of iterations = 11.0

     negative rho (up, down):  1.635E+00 0.000E+00

     total cpu time spent up to now is     1602.3 secs

     total energy              =   -2848.37366140 Ry
     estimated scf accuracy    <       0.00155194 Ry

     iteration #135     ecut=    30.00 Ry     beta= 0.40
     Davidson diagonalization with overlap
     ethr =  1.85E-09,  avg # of iterations = 11.0

     negative rho (up, down):  1.636E+00 0.000E+00

     total cpu time spent up to now is     1614.4 secs

     total energy              =   -2848.37247446 Ry
     estimated scf accuracy    <       0.00172576 Ry

     iteration #136     ecut=    30.00 Ry     beta= 0.40
     Davidson diagonalization with overlap
     ethr =  1.85E-09,  avg # of iterations = 11.0

     negative rho (up, down):  1.628E+00 0.000E+00

     total cpu time spent up to now is     1626.4 secs

     total energy              =   -2848.37760253 Ry
     estimated scf accuracy    <       0.00208540 Ry

     iteration #137     ecut=    30.00 Ry     beta= 0.40
     Davidson diagonalization with overlap
     ethr =  1.85E-09,  avg # of iterations = 11.0

     negative rho (up, down):  1.627E+00 0.000E+00

     total cpu time spent up to now is     1638.6 secs

     total energy              =   -2848.37884358 Ry
     estimated scf accuracy    <       0.00274281 Ry

     iteration #138     ecut=    30.00 Ry     beta= 0.40
     Davidson diagonalization with overlap
     ethr =  1.85E-09,  avg # of iterations = 14.0

     negative rho (up, down):  1.625E+00 0.000E+00

     total cpu time spent up to now is     1650.7 secs

     total energy              =   -2848.38049654 Ry
     estimated scf accuracy    <       0.00295920 Ry

     iteration #139     ecut=    30.00 Ry     beta= 0.40
     Davidson diagonalization with overlap
     ethr =  1.85E-09,  avg # of iterations = 13.0

     negative rho (up, down):  1.626E+00 0.000E+00

     total cpu time spent up to now is     1662.9 secs

     total energy              =   -2848.38036647 Ry
     estimated scf accuracy    <       0.00314112 Ry

     iteration #140     ecut=    30.00 Ry     beta= 0.40
     Davidson diagonalization with overlap
     ethr =  1.85E-09,  avg # of iterations = 15.0

     negative rho (up, down):  1.624E+00 0.000E+00

     total cpu time spent up to now is     1675.2 secs

     total energy              =   -2848.38261520 Ry
     estimated scf accuracy    <       0.00197046 Ry

     iteration #141     ecut=    30.00 Ry     beta= 0.40
     Davidson diagonalization with overlap
     ethr =  1.85E-09,  avg # of iterations = 14.0

     negative rho (up, down):  1.624E+00 0.000E+00

     total cpu time spent up to now is     1687.4 secs

     total energy              =   -2848.38371431 Ry
     estimated scf accuracy    <       0.00152005 Ry

     iteration #142     ecut=    30.00 Ry     beta= 0.40
     Davidson diagonalization with overlap
     ethr =  1.85E-09,  avg # of iterations = 14.0

     negative rho (up, down):  1.625E+00 0.000E+00

     total cpu time spent up to now is     1699.6 secs

     total energy              =   -2848.38392619 Ry
     estimated scf accuracy    <       0.00120229 Ry

     iteration #143     ecut=    30.00 Ry     beta= 0.40
     Davidson diagonalization with overlap
     ethr =  1.85E-09,  avg # of iterations = 14.0

     negative rho (up, down):  1.626E+00 0.000E+00

     total cpu time spent up to now is     1711.9 secs

     total energy              =   -2848.38406437 Ry
     estimated scf accuracy    <       0.00040257 Ry

     iteration #144     ecut=    30.00 Ry     beta= 0.40
     Davidson diagonalization with overlap
     ethr =  1.85E-09,  avg # of iterations = 11.0

     negative rho (up, down):  1.626E+00 0.000E+00

     total cpu time spent up to now is     1724.1 secs

     total energy              =   -2848.38423140 Ry
     estimated scf accuracy    <       0.00007929 Ry

     iteration #145     ecut=    30.00 Ry     beta= 0.40
     Davidson diagonalization with overlap
     ethr =  1.85E-09,  avg # of iterations =  7.0

     negative rho (up, down):  1.627E+00 0.000E+00

     total cpu time spent up to now is     1736.1 secs

     total energy              =   -2848.38421159 Ry
     estimated scf accuracy    <       0.00012596 Ry

     iteration #146     ecut=    30.00 Ry     beta= 0.40
     Davidson diagonalization with overlap
     ethr =  1.85E-09,  avg # of iterations = 11.0

     negative rho (up, down):  1.628E+00 0.000E+00

     total cpu time spent up to now is     1748.1 secs

     total energy              =   -2848.38424289 Ry
     estimated scf accuracy    <       0.00004017 Ry

     iteration #147     ecut=    30.00 Ry     beta= 0.40
     Davidson diagonalization with overlap
     ethr =  1.85E-09,  avg # of iterations =  7.0

     negative rho (up, down):  1.628E+00 0.000E+00

     total cpu time spent up to now is     1759.9 secs

     total energy              =   -2848.38424877 Ry
     estimated scf accuracy    <       0.00005868 Ry

     iteration #148     ecut=    30.00 Ry     beta= 0.40
     Davidson diagonalization with overlap
     ethr =  1.85E-09,  avg # of iterations =  6.0

     negative rho (up, down):  1.629E+00 0.000E+00

     total cpu time spent up to now is     1771.7 secs

     total energy              =   -2848.38428728 Ry
     estimated scf accuracy    <       0.00000371 Ry

     iteration #149     ecut=    30.00 Ry     beta= 0.40
     Davidson diagonalization with overlap
     ethr =  1.72E-09,  avg # of iterations =  3.0

     negative rho (up, down):  1.629E+00 0.000E+00

     total cpu time spent up to now is     1783.5 secs

     total energy              =   -2848.38430419 Ry
     estimated scf accuracy    <       0.00000284 Ry

     iteration #150     ecut=    30.00 Ry     beta= 0.40
     Davidson diagonalization with overlap
     ethr =  1.32E-09,  avg # of iterations =  3.0

     negative rho (up, down):  1.630E+00 0.000E+00

     total cpu time spent up to now is     1795.2 secs

     total energy              =   -2848.38431701 Ry
     estimated scf accuracy    <       0.00000313 Ry

     iteration #151     ecut=    30.00 Ry     beta= 0.40
     Davidson diagonalization with overlap
     ethr =  1.32E-09,  avg # of iterations =  3.0

     negative rho (up, down):  1.630E+00 0.000E+00

     total cpu time spent up to now is     1807.0 secs

     total energy              =   -2848.38431483 Ry
     estimated scf accuracy    <       0.00000375 Ry

     iteration #152     ecut=    30.00 Ry     beta= 0.40
     Davidson diagonalization with overlap
     ethr =  1.32E-09,  avg # of iterations =  3.0

     negative rho (up, down):  1.630E+00 0.000E+00

     total cpu time spent up to now is     1818.8 secs

     total energy              =   -2848.38433047 Ry
     estimated scf accuracy    <       0.00001001 Ry

     iteration #153     ecut=    30.00 Ry     beta= 0.40
     Davidson diagonalization with overlap
     ethr =  1.32E-09,  avg # of iterations =  3.0

     negative rho (up, down):  1.631E+00 0.000E+00

     total cpu time spent up to now is     1830.5 secs

     total energy              =   -2848.38434389 Ry
     estimated scf accuracy    <       0.00000803 Ry

     iteration #154     ecut=    30.00 Ry     beta= 0.40
     Davidson diagonalization with overlap
     ethr =  1.32E-09,  avg # of iterations =  3.0

     negative rho (up, down):  1.631E+00 0.000E+00

     total cpu time spent up to now is     1842.3 secs

     total energy              =   -2848.38435346 Ry
     estimated scf accuracy    <       0.00000502 Ry

     iteration #155     ecut=    30.00 Ry     beta= 0.40
     Davidson diagonalization with overlap
     ethr =  1.32E-09,  avg # of iterations =  3.0

     negative rho (up, down):  1.631E+00 0.000E+00

     total cpu time spent up to now is     1853.9 secs

     total energy              =   -2848.38435596 Ry
     estimated scf accuracy    <       0.00000358 Ry

     iteration #156     ecut=    30.00 Ry     beta= 0.40
     Davidson diagonalization with overlap
     ethr =  1.32E-09,  avg # of iterations =  3.0

     negative rho (up, down):  1.631E+00 0.000E+00

     total cpu time spent up to now is     1865.6 secs

     total energy              =   -2848.38433664 Ry
     estimated scf accuracy    <       0.00000700 Ry

     iteration #157     ecut=    30.00 Ry     beta= 0.40
     Davidson diagonalization with overlap
     ethr =  1.32E-09,  avg # of iterations =  3.0

     negative rho (up, down):  1.631E+00 0.000E+00

     total cpu time spent up to now is     1877.3 secs

     total energy              =   -2848.38436352 Ry
     estimated scf accuracy    <       0.00001559 Ry

     iteration #158     ecut=    30.00 Ry     beta= 0.40
     Davidson diagonalization with overlap
     ethr =  1.32E-09,  avg # of iterations =  3.0

     negative rho (up, down):  1.632E+00 0.000E+00

     total cpu time spent up to now is     1889.1 secs

     total energy              =   -2848.38429047 Ry
     estimated scf accuracy    <       0.00001024 Ry

     iteration #159     ecut=    30.00 Ry     beta= 0.40
     Davidson diagonalization with overlap
     ethr =  1.32E-09,  avg # of iterations =  3.0

     negative rho (up, down):  1.632E+00 0.000E+00

     total cpu time spent up to now is     1900.8 secs

     total energy              =   -2848.38429813 Ry
     estimated scf accuracy    <       0.00002536 Ry

     iteration #160     ecut=    30.00 Ry     beta= 0.40
     Davidson diagonalization with overlap
     ethr =  1.32E-09,  avg # of iterations =  3.0

     negative rho (up, down):  1.632E+00 0.000E+00

     total cpu time spent up to now is     1912.5 secs

     total energy              =   -2848.38427329 Ry
     estimated scf accuracy    <       0.00002527 Ry

     iteration #161     ecut=    30.00 Ry     beta= 0.40
     Davidson diagonalization with overlap
     ethr =  1.32E-09,  avg # of iterations =  3.0

     negative rho (up, down):  1.632E+00 0.000E+00

     total cpu time spent up to now is     1924.3 secs

     total energy              =   -2848.38428192 Ry
     estimated scf accuracy    <       0.00003217 Ry

     iteration #162     ecut=    30.00 Ry     beta= 0.40
     Davidson diagonalization with overlap
     ethr =  1.32E-09,  avg # of iterations =  3.0

     negative rho (up, down):  1.633E+00 0.000E+00

     total cpu time spent up to now is     1936.0 secs

     total energy              =   -2848.38424361 Ry
     estimated scf accuracy    <       0.00003008 Ry

     iteration #163     ecut=    30.00 Ry     beta= 0.40
     Davidson diagonalization with overlap
     ethr =  1.32E-09,  avg # of iterations =  3.0

     negative rho (up, down):  1.633E+00 0.000E+00

     total cpu time spent up to now is     1947.7 secs

     total energy              =   -2848.38421566 Ry
     estimated scf accuracy    <       0.00003715 Ry

     iteration #164     ecut=    30.00 Ry     beta= 0.40
     Davidson diagonalization with overlap
     ethr =  1.32E-09,  avg # of iterations =  3.0

     negative rho (up, down):  1.633E+00 0.000E+00

     total cpu time spent up to now is     1959.4 secs

     total energy              =   -2848.38416696 Ry
     estimated scf accuracy    <       0.00004235 Ry

     iteration #165     ecut=    30.00 Ry     beta= 0.40
     Davidson diagonalization with overlap
     ethr =  1.32E-09,  avg # of iterations =  3.0

     negative rho (up, down):  1.634E+00 0.000E+00

     total cpu time spent up to now is     1971.2 secs

     total energy              =   -2848.38402147 Ry
     estimated scf accuracy    <       0.00005119 Ry

     iteration #166     ecut=    30.00 Ry     beta= 0.40
     Davidson diagonalization with overlap
     ethr =  1.32E-09,  avg # of iterations =  3.0

     negative rho (up, down):  1.634E+00 0.000E+00

     total cpu time spent up to now is     1982.9 secs

     total energy              =   -2848.38401287 Ry
     estimated scf accuracy    <       0.00007450 Ry

     iteration #167     ecut=    30.00 Ry     beta= 0.40
     Davidson diagonalization with overlap
     ethr =  1.32E-09,  avg # of iterations =  3.0

     negative rho (up, down):  1.634E+00 0.000E+00

     total cpu time spent up to now is     1994.6 secs

     total energy              =   -2848.38388265 Ry
     estimated scf accuracy    <       0.00007381 Ry

     iteration #168     ecut=    30.00 Ry     beta= 0.40
     Davidson diagonalization with overlap
     ethr =  1.32E-09,  avg # of iterations =  3.0

     negative rho (up, down):  1.634E+00 0.000E+00

     total cpu time spent up to now is     2006.4 secs

     total energy              =   -2848.38380271 Ry
     estimated scf accuracy    <       0.00009619 Ry

     iteration #169     ecut=    30.00 Ry     beta= 0.40
     Davidson diagonalization with overlap
     ethr =  1.32E-09,  avg # of iterations =  3.0

     negative rho (up, down):  1.635E+00 0.000E+00

     total cpu time spent up to now is     2018.2 secs

     total energy              =   -2848.38358237 Ry
     estimated scf accuracy    <       0.00010371 Ry

     iteration #170     ecut=    30.00 Ry     beta= 0.40
     Davidson diagonalization with overlap
     ethr =  1.32E-09,  avg # of iterations =  3.0

     negative rho (up, down):  1.635E+00 0.000E+00

     total cpu time spent up to now is     2029.9 secs

     total energy              =   -2848.38354279 Ry
     estimated scf accuracy    <       0.00013306 Ry

     iteration #171     ecut=    30.00 Ry     beta= 0.40
     Davidson diagonalization with overlap
     ethr =  1.32E-09,  avg # of iterations =  3.0

     negative rho (up, down):  1.635E+00 0.000E+00

     total cpu time spent up to now is     2041.5 secs

     total energy              =   -2848.38388100 Ry
     estimated scf accuracy    <       0.00013893 Ry

     iteration #172     ecut=    30.00 Ry     beta= 0.40
     Davidson diagonalization with overlap
     ethr =  1.32E-09,  avg # of iterations =  3.0

     negative rho (up, down):  1.634E+00 0.000E+00

     total cpu time spent up to now is     2053.3 secs

     total energy              =   -2848.38405229 Ry
     estimated scf accuracy    <       0.00009470 Ry

     iteration #173     ecut=    30.00 Ry     beta= 0.40
     Davidson diagonalization with overlap
     ethr =  1.32E-09,  avg # of iterations =  3.0

     negative rho (up, down):  1.634E+00 0.000E+00

     total cpu time spent up to now is     2065.1 secs

     total energy              =   -2848.38420272 Ry
     estimated scf accuracy    <       0.00007186 Ry

     iteration #174     ecut=    30.00 Ry     beta= 0.40
     Davidson diagonalization with overlap
     ethr =  1.32E-09,  avg # of iterations =  3.0

     negative rho (up, down):  1.635E+00 0.000E+00

     total cpu time spent up to now is     2076.9 secs

     total energy              =   -2848.38415637 Ry
     estimated scf accuracy    <       0.00005639 Ry

     iteration #175     ecut=    30.00 Ry     beta= 0.40
     Davidson diagonalization with overlap
     ethr =  1.32E-09,  avg # of iterations =  3.0

     negative rho (up, down):  1.635E+00 0.000E+00

     total cpu time spent up to now is     2088.6 secs

     total energy              =   -2848.38406363 Ry
     estimated scf accuracy    <       0.00006044 Ry

     iteration #176     ecut=    30.00 Ry     beta= 0.40
     Davidson diagonalization with overlap
     ethr =  1.32E-09,  avg # of iterations =  3.0

     negative rho (up, down):  1.635E+00 0.000E+00

     total cpu time spent up to now is     2100.5 secs

     total energy              =   -2848.38439374 Ry
     estimated scf accuracy    <       0.00007163 Ry

     iteration #177     ecut=    30.00 Ry     beta= 0.40
     Davidson diagonalization with overlap
     ethr =  1.32E-09,  avg # of iterations =  8.0

     negative rho (up, down):  1.635E+00 0.000E+00

     total cpu time spent up to now is     2112.6 secs

     total energy              =   -2848.38432718 Ry
     estimated scf accuracy    <       0.00003154 Ry

     iteration #178     ecut=    30.00 Ry     beta= 0.40
     Davidson diagonalization with overlap
     ethr =  1.32E-09,  avg # of iterations =  6.0

     negative rho (up, down):  1.635E+00 0.000E+00

     total cpu time spent up to now is     2124.4 secs

     total energy              =   -2848.38449955 Ry
     estimated scf accuracy    <       0.00003540 Ry

     iteration #179     ecut=    30.00 Ry     beta= 0.40
     Davidson diagonalization with overlap
     ethr =  1.32E-09,  avg # of iterations =  7.0

     negative rho (up, down):  1.635E+00 0.000E+00

     total cpu time spent up to now is     2136.4 secs

     total energy              =   -2848.38450733 Ry
     estimated scf accuracy    <       0.00003577 Ry

     iteration #180     ecut=    30.00 Ry     beta= 0.40
     Davidson diagonalization with overlap
     ethr =  1.32E-09,  avg # of iterations =  5.0

     negative rho (up, down):  1.635E+00 0.000E+00

     total cpu time spent up to now is     2148.2 secs

     total energy              =   -2848.38451116 Ry
     estimated scf accuracy    <       0.00000670 Ry

     iteration #181     ecut=    30.00 Ry     beta= 0.40
     Davidson diagonalization with overlap
     ethr =  1.32E-09,  avg # of iterations =  6.0

     negative rho (up, down):  1.635E+00 0.000E+00

     total cpu time spent up to now is     2160.1 secs

     total energy              =   -2848.38451496 Ry
     estimated scf accuracy    <       0.00000811 Ry

     iteration #182     ecut=    30.00 Ry     beta= 0.40
     Davidson diagonalization with overlap
     ethr =  1.32E-09,  avg # of iterations =  2.0

     negative rho (up, down):  1.635E+00 0.000E+00

     total cpu time spent up to now is     2171.9 secs

     total energy              =   -2848.38450732 Ry
     estimated scf accuracy    <       0.00000454 Ry

     iteration #183     ecut=    30.00 Ry     beta= 0.40
     Davidson diagonalization with overlap
     ethr =  1.32E-09,  avg # of iterations =  2.0

     negative rho (up, down):  1.635E+00 0.000E+00

     total cpu time spent up to now is     2183.6 secs

     total energy              =   -2848.38452436 Ry
     estimated scf accuracy    <       0.00000092 Ry

     iteration #184     ecut=    30.00 Ry     beta= 0.40
     Davidson diagonalization with overlap
     ethr =  4.24E-10,  avg # of iterations =  6.0

     negative rho (up, down):  1.635E+00 0.000E+00

     total cpu time spent up to now is     2195.5 secs

     total energy              =   -2848.38452578 Ry
     estimated scf accuracy    <       0.00000069 Ry

     iteration #185     ecut=    30.00 Ry     beta= 0.40
     Davidson diagonalization with overlap
     ethr =  3.21E-10,  avg # of iterations =  3.0

     negative rho (up, down):  1.635E+00 0.000E+00

     total cpu time spent up to now is     2207.4 secs

     total energy              =   -2848.38453125 Ry
     estimated scf accuracy    <       0.00000048 Ry

     iteration #186     ecut=    30.00 Ry     beta= 0.40
     Davidson diagonalization with overlap
     ethr =  2.23E-10,  avg # of iterations =  3.0

     negative rho (up, down):  1.636E+00 0.000E+00

     total cpu time spent up to now is     2219.1 secs

     total energy              =   -2848.38453516 Ry
     estimated scf accuracy    <       0.00000088 Ry

     iteration #187     ecut=    30.00 Ry     beta= 0.40
     Davidson diagonalization with overlap
     ethr =  2.23E-10,  avg # of iterations =  3.0

     negative rho (up, down):  1.636E+00 0.000E+00

     total cpu time spent up to now is     2230.9 secs

     total energy              =   -2848.38453628 Ry
     estimated scf accuracy    <       0.00000121 Ry

     iteration #188     ecut=    30.00 Ry     beta= 0.40
     Davidson diagonalization with overlap
     ethr =  2.23E-10,  avg # of iterations =  3.0

     negative rho (up, down):  1.636E+00 0.000E+00

     total cpu time spent up to now is     2242.7 secs

     total energy              =   -2848.38453752 Ry
     estimated scf accuracy    <       0.00000256 Ry

     iteration #189     ecut=    30.00 Ry     beta= 0.40
     Davidson diagonalization with overlap
     ethr =  2.23E-10,  avg # of iterations =  3.0

     negative rho (up, down):  1.636E+00 0.000E+00

     total cpu time spent up to now is     2254.5 secs

     total energy              =   -2848.38453119 Ry
     estimated scf accuracy    <       0.00000313 Ry

     iteration #190     ecut=    30.00 Ry     beta= 0.40
     Davidson diagonalization with overlap
     ethr =  2.23E-10,  avg # of iterations =  3.0

     negative rho (up, down):  1.636E+00 0.000E+00

     total cpu time spent up to now is     2266.2 secs

     total energy              =   -2848.38452764 Ry
     estimated scf accuracy    <       0.00000532 Ry

     iteration #191     ecut=    30.00 Ry     beta= 0.40
     Davidson diagonalization with overlap
     ethr =  2.23E-10,  avg # of iterations =  3.0

     negative rho (up, down):  1.636E+00 0.000E+00

     total cpu time spent up to now is     2277.9 secs

     total energy              =   -2848.38453650 Ry
     estimated scf accuracy    <       0.00000665 Ry

     iteration #192     ecut=    30.00 Ry     beta= 0.40
     Davidson diagonalization with overlap
     ethr =  2.23E-10,  avg # of iterations =  3.0

     negative rho (up, down):  1.636E+00 0.000E+00

     total cpu time spent up to now is     2289.6 secs

     total energy              =   -2848.38451591 Ry
     estimated scf accuracy    <       0.00000548 Ry

     iteration #193     ecut=    30.00 Ry     beta= 0.40
     Davidson diagonalization with overlap
     ethr =  2.23E-10,  avg # of iterations =  3.0

     negative rho (up, down):  1.636E+00 0.000E+00

     total cpu time spent up to now is     2301.3 secs

     total energy              =   -2848.38447753 Ry
     estimated scf accuracy    <       0.00000978 Ry

     iteration #194     ecut=    30.00 Ry     beta= 0.40
     Davidson diagonalization with overlap
     ethr =  2.23E-10,  avg # of iterations =  3.0

     negative rho (up, down):  1.636E+00 0.000E+00

     total cpu time spent up to now is     2313.1 secs

     total energy              =   -2848.38450259 Ry
     estimated scf accuracy    <       0.00001638 Ry

     iteration #195     ecut=    30.00 Ry     beta= 0.40
     Davidson diagonalization with overlap
     ethr =  2.23E-10,  avg # of iterations =  3.0

     negative rho (up, down):  1.636E+00 0.000E+00

     total cpu time spent up to now is     2324.7 secs

     total energy              =   -2848.38451430 Ry
     estimated scf accuracy    <       0.00001309 Ry

     iteration #196     ecut=    30.00 Ry     beta= 0.40
     Davidson diagonalization with overlap
     ethr =  2.23E-10,  avg # of iterations =  3.0

     negative rho (up, down):  1.636E+00 0.000E+00

     total cpu time spent up to now is     2336.5 secs

     total energy              =   -2848.38456384 Ry
     estimated scf accuracy    <       0.00001162 Ry

     iteration #197     ecut=    30.00 Ry     beta= 0.40
     Davidson diagonalization with overlap
     ethr =  2.23E-10,  avg # of iterations =  3.0

     negative rho (up, down):  1.636E+00 0.000E+00

     total cpu time spent up to now is     2348.3 secs

     total energy              =   -2848.38453653 Ry
     estimated scf accuracy    <       0.00000265 Ry

     iteration #198     ecut=    30.00 Ry     beta= 0.40
     Davidson diagonalization with overlap
     ethr =  2.23E-10,  avg # of iterations =  3.0

     negative rho (up, down):  1.637E+00 0.000E+00

     total cpu time spent up to now is     2360.1 secs

     total energy              =   -2848.38449520 Ry
     estimated scf accuracy    <       0.00000894 Ry

     iteration #199     ecut=    30.00 Ry     beta= 0.40
     Davidson diagonalization with overlap
     ethr =  2.23E-10,  avg # of iterations =  3.0

     negative rho (up, down):  1.637E+00 0.000E+00

     total cpu time spent up to now is     2371.8 secs

     total energy              =   -2848.38456188 Ry
     estimated scf accuracy    <       0.00001610 Ry

     iteration #200     ecut=    30.00 Ry     beta= 0.40
     Davidson diagonalization with overlap
     ethr =  2.23E-10,  avg # of iterations =  4.0

     negative rho (up, down):  1.637E+00 0.000E+00

     total cpu time spent up to now is     2383.7 secs

     total energy              =   -2848.38454589 Ry
     estimated scf accuracy    <       0.00000652 Ry

     End of self-consistent calculation

     convergence NOT achieved after 200 iterations: stopping

     Writing config to output data dir /root/qe_scratch/pristine_TiS2.save/ :
     XML data file, charge density distributed wavefunctions
 
     init_run     :     14.40s CPU     18.62s WALL (       1 calls)
     electrons    :   1928.06s CPU   2364.52s WALL (       1 calls)

     Called by init_run:
     wfcinit      :      0.20s CPU      0.41s WALL (       1 calls)
     potinit      :     13.65s CPU     17.36s WALL (       1 calls)
     hinit0       :      0.35s CPU      0.44s WALL (       1 calls)

     Called by electrons:
     c_bands      :     65.99s CPU     66.26s WALL (     200 calls)
     sum_band     :     15.47s CPU     15.53s WALL (     200 calls)
     v_of_rho     :     15.17s CPU     19.89s WALL (     201 calls)
     newd         :      8.36s CPU      8.85s WALL (     201 calls)
                                        8.85s GPU  (     201 calls)
     PAW_pot      :   1797.77s CPU   2224.28s WALL (     201 calls)
     mix_rho      :      8.38s CPU      8.78s WALL (     200 calls)

     Called by c_bands:
     init_us_2    :      0.44s CPU      0.46s WALL (     401 calls)
     cegterg      :     64.42s CPU     64.63s WALL (     200 calls)

     Called by *egterg:
     cdiaghg      :      9.69s CPU      9.77s WALL (    1128 calls)
                                        9.77s GPU  (    1128 calls)
     h_psi        :     27.42s CPU     27.78s WALL (    1129 calls)
                                       27.77s GPU  (    1129 calls)
     s_psi        :      1.38s CPU      1.38s WALL (    1129 calls)
     g_psi        :      0.01s CPU      0.12s WALL (     928 calls)
                                        0.12s GPU  (     928 calls)

     Called by h_psi:
     h_psi:calbec :      0.13s CPU      7.65s WALL (    1129 calls)
                                        7.65s GPU  (    1129 calls)
     vloc_psi     :     11.94s CPU     12.07s WALL (    1129 calls)
                                       12.07s GPU  (    1129 calls)
     add_vuspsi   :      1.35s CPU      7.94s WALL (    1129 calls)
                                        7.93s GPU  (    1129 calls)

     General routines
     calbec       :      0.13s CPU      0.30s WALL (    1329 calls)
     fft          :     18.03s CPU     24.20s WALL (    2613 calls)
                                        0.43s GPU  (    2412 calls)
     ffts         :      6.10s CPU      7.67s WALL (     401 calls)
                                        0.02s GPU  (     200 calls)
     fftw         :      0.18s CPU     11.54s WALL (   12418 calls)
                                       11.50s GPU  (   12418 calls)
     interpolate  :     25.16s CPU     32.57s WALL (     201 calls)
     davcio       :      0.01s CPU      0.07s WALL (      19 calls)
 
     Parallel routines
 
     PWSCF        :  32m23.08s CPU  39m43.87s WALL

 
   This run was terminated on:  10:49:34   6May2026            

=------------------------------------------------------------------------------=
   JOB DONE.
=------------------------------------------------------------------------------=
Warning: ieee_invalid is signaling
Warning: ieee_divide_by_zero is signaling
Warning: ieee_inexact is signaling
FORTRAN STOP
