--------------------------------------------------------------------------
WARNING: Open MPI tried to bind a process but failed.  This is a
warning only; your job will continue, though performance may
be degraded.

  Local host:        3253031b5b37
  Application name:  /root/qe-7.3.1/bin/pw.x
  Error message:     failed to bind memory
  Location:          ../../../../../orte/mca/rtc/hwloc/rtc_hwloc.c:447

--------------------------------------------------------------------------

     Program PWSCF v.7.3.1 starts on  6May2026 at  9:18:23 

     This program is part of the open-source Quantum ESPRESSO suite
     for quantum simulation of materials; please cite
         "P. Giannozzi et al., J. Phys.:Condens. Matter 21 395502 (2009);
         "P. Giannozzi et al., J. Phys.:Condens. Matter 29 465901 (2017);
         "P. Giannozzi et al., J. Chem. Phys. 152 154105 (2020);
          URL http://www.quantum-espresso.org", 
     in publications or presentations arising from this work. More details at
     http://www.quantum-espresso.org/quote

     Parallel version (MPI & OpenMP), running on       8 processor cores
     Number of MPI processes:                 1
     Threads/MPI process:                     8

     MPI processes distributed on     1 nodes
     86718 MiB available memory on the printing compute node when the environment starts
 
     Reading input from pristine_NiSe2.in

     Current dimensions of program PWSCF are:
     Max number of different atomic species (ntypx) = 10
     Max number of k-points (npk) =  40000
     Max angular momentum in pseudopotentials (lmaxx) =  4
     file Ni.UPF: wavefunction(s)  4S renormalized
 
     Subspace diagonalization in iterative solution of the eigenvalue problem:
     a serial algorithm will be used

 
     G-vector sticks info
     --------------------
     sticks:   dense  smooth     PW     G-vecs:    dense   smooth      PW
     Sum        4993    3331    847               470493   256105   32043
 
     Using Slab Decomposition
 


     bravais-lattice index     =            0
     lattice parameter (alat)  =      20.0788  a.u.
     unit-cell volume          =   11538.2465 (a.u.)^3
     number of atoms/cell      =           27
     number of atomic types    =            2
     number of electrons       =       198.00
     number of Kohn-Sham states=          119
     kinetic-energy cutoff     =      30.0000  Ry
     charge density cutoff     =     180.0000  Ry
     scf convergence threshold =      1.0E-07
     mixing beta               =       0.4000
     number of iterations used =            8  plain     mixing
     Exchange-correlation= PBE
                           (   1   4   3   4   0   0   0)

     GPU acceleration is ACTIVE.  1 visible GPUs per MPI rank


     celldm(1)=  20.078800  celldm(2)=   0.000000  celldm(3)=   0.000000
     celldm(4)=   0.000000  celldm(5)=   0.000000  celldm(6)=   0.000000

     crystal axes: (cart. coord. in units of alat)
               a(1) = (   1.000000   0.000000   0.000000 )  
               a(2) = (  -0.500000   0.866025   0.000000 )  
               a(3) = (   0.000000   0.000000   1.645872 )  

     reciprocal axes: (cart. coord. in units 2 pi/alat)
               b(1) = (  1.000000  0.577350 -0.000000 )  
               b(2) = (  0.000000  1.154701  0.000000 )  
               b(3) = (  0.000000 -0.000000  0.607581 )  


     PseudoPot. # 1 for Ni read from file:
     /root/qe_pseudos/Ni.UPF
     MD5 check sum: f3dced881015233e580a368199c8c48a
     Pseudo is Ultrasoft + core correction, Zval = 10.0
     Generated by new atomic code, or converted to UPF format
     Using radial grid of 1203 points,  6 beta functions with: 
                l(1) =   0
                l(2) =   0
                l(3) =   1
                l(4) =   1
                l(5) =   2
                l(6) =   2
     Q(r) pseudized with 0 coefficients 


     PseudoPot. # 2 for Se read from file:
     /root/qe_pseudos/Se.UPF
     MD5 check sum: 8e2a6847b5cb9faee9497ebb573e71ea
     Pseudo is Ultrasoft + core correction, Zval =  6.0
     Generated using &quot;atomic&quot; code by A. Dal Corso  v.6.3
     Using radial grid of 1211 points,  4 beta functions with: 
                l(1) =   0
                l(2) =   0
                l(3) =   1
                l(4) =   1
     Q(r) pseudized with 0 coefficients 


     atomic species   valence    mass     pseudopotential
     Ni               10.00    58.69340     Ni( 1.00)
     Se                6.00    78.97100     Se( 1.00)

     No symmetry found



   Cartesian axes

     site n.     atom                  positions (alat units)
         1        Ni     tau(   1) = (   0.3319681   0.5782695   0.8158394  )
         2        Ni     tau(   2) = (   0.4986431   0.2891591   0.8180497  )
         3        Ni     tau(   3) = (   0.6644178  -0.0003999   0.8218935  )
         4        Ni     tau(   4) = (  -0.0007164   0.5795802   0.8214573  )
         5        Ni     tau(   5) = (   0.1860421   0.2902701   0.8015653  )
         6        Ni     tau(   6) = (   0.3375550  -0.0024481   0.8124712  )
         7        Ni     tau(   7) = (   0.0077303  -0.0175585   0.8015505  )
         8        Ni     tau(   8) = (  -0.3346121   0.5779950   0.8181911  )
         9        Ni     tau(   9) = (  -0.1869838   0.3004646   0.8037515  )
        10        Se     tau(  10) = (  -0.3201080   0.7612645   0.6941923  )
        11        Se     tau(  11) = (   0.4988569   0.6741699   0.9291634  )
        12        Se     tau(  12) = (   0.1789113   0.0901584   0.9721240  )
        13        Se     tau(  13) = (   0.4989113   0.4814535   0.7030227  )
        14        Se     tau(  14) = (   0.6493661   0.3946499   0.9561007  )
        15        Se     tau(  15) = (   0.0171747   0.1826847   0.7098075  )
        16        Se     tau(  16) = (   0.6470426   0.1741576   0.6831421  )
        17        Se     tau(  17) = (   0.8112051   0.0709400   0.9986713  )
        18        Se     tau(  18) = (   0.0069876   0.7661361   0.6944736  )
        19        Se     tau(  19) = (   0.1667446   0.6732455   0.9353919  )
        20        Se     tau(  20) = (   0.0100305   0.4172694   0.9992524  )
        21        Se     tau(  21) = (   0.1629676   0.4850309   0.7001918  )
        22        Se     tau(  22) = (   0.3274893   0.7710539   0.6997996  )
        23        Se     tau(  23) = (  -0.1606521   0.5073737   0.6831860  )
        24        Se     tau(  24) = (   0.3474503   0.1849355   0.6931426  )
        25        Se     tau(  25) = (   0.4959135   0.0973278   0.9364175  )
        26        Se     tau(  26) = (  -0.1697160   0.6762576   0.9362865  )
        27        Se     tau(  27) = (   0.3323927   0.3855023   0.9288420  )

     number of k points=     1  Methfessel-Paxton smearing, width (Ry)=  0.0100
                       cart. coord. in units 2pi/alat
        k(    1) = (   0.0000000   0.0000000   0.0000000), wk =   2.0000000

     Dense  grid:   470493 G-vectors     FFT dimensions: (  90,  90, 144)

     Smooth grid:   256105 G-vectors     FFT dimensions: (  72,  72, 120)

     Estimated max dynamical RAM per process >       2.16 GB

     Check: negative core charge=   -0.000037

     Initial potential from superposition of free atoms

     starting charge     197.9945, renormalised to     198.0000

     negative rho (up, down):  8.794E-02 0.000E+00
     Starting wfcs are  126 randomized atomic wfcs

     total cpu time spent up to now is        8.3 secs

     Self-consistent Calculation

     iteration #  1     ecut=    30.00 Ry     beta= 0.40
     Davidson diagonalization with overlap
     ethr =  1.00E-02,  avg # of iterations =  5.0
     Minimization algorithm failed to find Fermi energy: reverting to bisection
     Possible cause: smearing is larger than the electronic band-gap.

     negative rho (up, down):  7.857E-02 0.000E+00

     total cpu time spent up to now is        9.2 secs

     total energy              =   -1140.56073990 Ry
     estimated scf accuracy    <      15.04871658 Ry

     iteration #  2     ecut=    30.00 Ry     beta= 0.40
     Davidson diagonalization with overlap
     ethr =  7.60E-03,  avg # of iterations =  2.0

     negative rho (up, down):  1.247E-01 0.000E+00

     total cpu time spent up to now is       10.0 secs

     total energy              =   -1145.00270645 Ry
     estimated scf accuracy    <      49.03750949 Ry

     iteration #  3     ecut=    30.00 Ry     beta= 0.40
     Davidson diagonalization with overlap
     ethr =  7.60E-03,  avg # of iterations =  2.0

     negative rho (up, down):  1.380E-01 0.000E+00

     total cpu time spent up to now is       10.7 secs

     total energy              =   -1147.28454168 Ry
     estimated scf accuracy    <      18.46936418 Ry

     iteration #  4     ecut=    30.00 Ry     beta= 0.40
     Davidson diagonalization with overlap
     ethr =  7.60E-03,  avg # of iterations =  1.0

     negative rho (up, down):  1.277E-01 0.000E+00

     total cpu time spent up to now is       11.4 secs

     total energy              =   -1147.94053834 Ry
     estimated scf accuracy    <       2.93902551 Ry

     iteration #  5     ecut=    30.00 Ry     beta= 0.40
     Davidson diagonalization with overlap
     ethr =  1.48E-03,  avg # of iterations =  2.0

     negative rho (up, down):  1.099E-01 0.000E+00

     total cpu time spent up to now is       12.2 secs

     total energy              =   -1147.83194867 Ry
     estimated scf accuracy    <       2.28358332 Ry

     iteration #  6     ecut=    30.00 Ry     beta= 0.40
     Davidson diagonalization with overlap
     ethr =  1.15E-03,  avg # of iterations =  2.0

     negative rho (up, down):  9.784E-02 0.000E+00

     total cpu time spent up to now is       12.9 secs

     total energy              =   -1147.93394501 Ry
     estimated scf accuracy    <       1.40916132 Ry

     iteration #  7     ecut=    30.00 Ry     beta= 0.40
     Davidson diagonalization with overlap
     ethr =  7.12E-04,  avg # of iterations =  1.0

     negative rho (up, down):  8.957E-02 0.000E+00

     total cpu time spent up to now is       13.7 secs

     total energy              =   -1147.99209869 Ry
     estimated scf accuracy    <       0.26063511 Ry

     iteration #  8     ecut=    30.00 Ry     beta= 0.40
     Davidson diagonalization with overlap
     ethr =  1.32E-04,  avg # of iterations =  6.0

     negative rho (up, down):  8.687E-02 0.000E+00

     total cpu time spent up to now is       14.5 secs

     total energy              =   -1147.96507053 Ry
     estimated scf accuracy    <       0.59110378 Ry

     iteration #  9     ecut=    30.00 Ry     beta= 0.40
     Davidson diagonalization with overlap
     ethr =  1.32E-04,  avg # of iterations =  1.0

     negative rho (up, down):  8.601E-02 0.000E+00

     total cpu time spent up to now is       15.2 secs

     total energy              =   -1148.00144057 Ry
     estimated scf accuracy    <       0.09878760 Ry

     iteration # 10     ecut=    30.00 Ry     beta= 0.40
     Davidson diagonalization with overlap
     ethr =  4.99E-05,  avg # of iterations =  1.0

     negative rho (up, down):  8.686E-02 0.000E+00

     total cpu time spent up to now is       15.9 secs

     total energy              =   -1148.00540191 Ry
     estimated scf accuracy    <       0.13769980 Ry

     iteration # 11     ecut=    30.00 Ry     beta= 0.40
     Davidson diagonalization with overlap
     ethr =  4.99E-05,  avg # of iterations =  1.0

     negative rho (up, down):  8.740E-02 0.000E+00

     total cpu time spent up to now is       16.6 secs

     total energy              =   -1147.99198490 Ry
     estimated scf accuracy    <       0.23486641 Ry

     iteration # 12     ecut=    30.00 Ry     beta= 0.40
     Davidson diagonalization with overlap
     ethr =  4.99E-05,  avg # of iterations =  1.0

     negative rho (up, down):  8.606E-02 0.000E+00

     total cpu time spent up to now is       17.3 secs

     total energy              =   -1148.00254582 Ry
     estimated scf accuracy    <       0.03259406 Ry

     iteration # 13     ecut=    30.00 Ry     beta= 0.40
     Davidson diagonalization with overlap
     ethr =  1.65E-05,  avg # of iterations =  1.0

     negative rho (up, down):  8.568E-02 0.000E+00

     total cpu time spent up to now is       18.1 secs

     total energy              =   -1148.00341762 Ry
     estimated scf accuracy    <       0.00756214 Ry

     iteration # 14     ecut=    30.00 Ry     beta= 0.40
     Davidson diagonalization with overlap
     ethr =  3.82E-06,  avg # of iterations =  1.0

     negative rho (up, down):  8.560E-02 0.000E+00

     total cpu time spent up to now is       18.8 secs

     total energy              =   -1148.00340421 Ry
     estimated scf accuracy    <       0.00422055 Ry

     iteration # 15     ecut=    30.00 Ry     beta= 0.40
     Davidson diagonalization with overlap
     ethr =  2.13E-06,  avg # of iterations =  2.0

     negative rho (up, down):  8.544E-02 0.000E+00

     total cpu time spent up to now is       19.5 secs

     total energy              =   -1148.00361284 Ry
     estimated scf accuracy    <       0.00677459 Ry

     iteration # 16     ecut=    30.00 Ry     beta= 0.40
     Davidson diagonalization with overlap
     ethr =  2.13E-06,  avg # of iterations =  1.0

     negative rho (up, down):  8.539E-02 0.000E+00

     total cpu time spent up to now is       20.3 secs

     total energy              =   -1148.00382569 Ry
     estimated scf accuracy    <       0.00015173 Ry

     iteration # 17     ecut=    30.00 Ry     beta= 0.40
     Davidson diagonalization with overlap
     ethr =  7.66E-08,  avg # of iterations =  2.0

     negative rho (up, down):  8.537E-02 0.000E+00

     total cpu time spent up to now is       21.0 secs

     total energy              =   -1148.00381335 Ry
     estimated scf accuracy    <       0.00050436 Ry

     iteration # 18     ecut=    30.00 Ry     beta= 0.40
     Davidson diagonalization with overlap
     ethr =  7.66E-08,  avg # of iterations =  2.0

     negative rho (up, down):  8.534E-02 0.000E+00

     total cpu time spent up to now is       21.7 secs

     total energy              =   -1148.00384260 Ry
     estimated scf accuracy    <       0.00021388 Ry

     iteration # 19     ecut=    30.00 Ry     beta= 0.40
     Davidson diagonalization with overlap
     ethr =  7.66E-08,  avg # of iterations =  1.0

     negative rho (up, down):  8.534E-02 0.000E+00

     total cpu time spent up to now is       22.4 secs

     total energy              =   -1148.00385319 Ry
     estimated scf accuracy    <       0.00001894 Ry

     iteration # 20     ecut=    30.00 Ry     beta= 0.40
     Davidson diagonalization with overlap
     ethr =  9.57E-09,  avg # of iterations =  2.0

     negative rho (up, down):  8.533E-02 0.000E+00

     total cpu time spent up to now is       23.2 secs

     total energy              =   -1148.00385311 Ry
     estimated scf accuracy    <       0.00006055 Ry

     iteration # 21     ecut=    30.00 Ry     beta= 0.40
     Davidson diagonalization with overlap
     ethr =  9.57E-09,  avg # of iterations =  1.0

     negative rho (up, down):  8.532E-02 0.000E+00

     total cpu time spent up to now is       23.9 secs

     total energy              =   -1148.00385552 Ry
     estimated scf accuracy    <       0.00001339 Ry

     iteration # 22     ecut=    30.00 Ry     beta= 0.40
     Davidson diagonalization with overlap
     ethr =  6.76E-09,  avg # of iterations =  1.0

     negative rho (up, down):  8.531E-02 0.000E+00

     total cpu time spent up to now is       24.6 secs

     total energy              =   -1148.00385601 Ry
     estimated scf accuracy    <       0.00000233 Ry

     iteration # 23     ecut=    30.00 Ry     beta= 0.40
     Davidson diagonalization with overlap
     ethr =  1.17E-09,  avg # of iterations =  1.0

     negative rho (up, down):  8.532E-02 0.000E+00

     total cpu time spent up to now is       25.3 secs

     total energy              =   -1148.00385598 Ry
     estimated scf accuracy    <       0.00000363 Ry

     iteration # 24     ecut=    30.00 Ry     beta= 0.40
     Davidson diagonalization with overlap
     ethr =  1.17E-09,  avg # of iterations =  1.0

     negative rho (up, down):  8.531E-02 0.000E+00

     total cpu time spent up to now is       26.0 secs

     total energy              =   -1148.00385620 Ry
     estimated scf accuracy    <       0.00000138 Ry

     iteration # 25     ecut=    30.00 Ry     beta= 0.40
     Davidson diagonalization with overlap
     ethr =  6.94E-10,  avg # of iterations =  1.0

     negative rho (up, down):  8.531E-02 0.000E+00

     total cpu time spent up to now is       26.8 secs

     total energy              =   -1148.00385618 Ry
     estimated scf accuracy    <       0.00000159 Ry

     iteration # 26     ecut=    30.00 Ry     beta= 0.40
     Davidson diagonalization with overlap
     ethr =  6.94E-10,  avg # of iterations =  1.0

     negative rho (up, down):  8.531E-02 0.000E+00

     total cpu time spent up to now is       27.5 secs

     total energy              =   -1148.00385621 Ry
     estimated scf accuracy    <       0.00000290 Ry

     iteration # 27     ecut=    30.00 Ry     beta= 0.40
     Davidson diagonalization with overlap
     ethr =  6.94E-10,  avg # of iterations =  1.0

     negative rho (up, down):  8.531E-02 0.000E+00

     total cpu time spent up to now is       28.2 secs

     total energy              =   -1148.00385629 Ry
     estimated scf accuracy    <       0.00000014 Ry

     iteration # 28     ecut=    30.00 Ry     beta= 0.40
     Davidson diagonalization with overlap
     ethr =  6.93E-11,  avg # of iterations =  1.0

     negative rho (up, down):  8.531E-02 0.000E+00

     total cpu time spent up to now is       28.9 secs

     total energy              =   -1148.00385628 Ry
     estimated scf accuracy    <       0.00000022 Ry

     iteration # 29     ecut=    30.00 Ry     beta= 0.40
     Davidson diagonalization with overlap
     ethr =  6.93E-11,  avg # of iterations =  1.0

     negative rho (up, down):  8.531E-02 0.000E+00

     total cpu time spent up to now is       29.6 secs

     total energy              =   -1148.00385629 Ry
     estimated scf accuracy    <       0.00000015 Ry

     iteration # 30     ecut=    30.00 Ry     beta= 0.40
     Davidson diagonalization with overlap
     ethr =  6.93E-11,  avg # of iterations =  1.0

     negative rho (up, down):  8.531E-02 0.000E+00

     total cpu time spent up to now is       30.3 secs

     End of self-consistent calculation

          k = 0.0000 0.0000 0.0000 ( 32043 PWs)   bands (ev):

   -15.9581 -15.1560 -15.0950 -15.0267 -14.6948 -14.4313 -14.3050 -14.1014
   -14.0490 -14.0289 -13.9731 -13.9045 -13.7931 -13.7625 -13.7099 -13.2561
   -12.9320 -12.9082  -6.7827  -6.7129  -6.5953  -6.5507  -6.4497  -6.3855
    -6.3559  -6.2160  -6.0698  -6.0334  -5.8755  -5.8166  -5.8111  -5.6768
    -5.5447  -5.4465  -5.4414  -5.2891  -5.1722  -5.1217  -5.0126  -4.9697
    -4.9243  -4.8986  -4.8374  -4.7053  -4.6353  -4.6025  -4.5471  -4.4372
    -4.3938  -4.3374  -4.2768  -4.2584  -4.0305  -4.0219  -3.9000  -3.8361
    -3.7218  -3.6931  -3.5877  -3.5740  -3.5108  -3.4577  -3.4456  -3.4045
    -3.3198  -3.2698  -3.2105  -3.1911  -3.1838  -3.1074  -3.0100  -2.9750
    -2.9689  -2.9508  -2.8939  -2.8846  -2.8464  -2.8408  -2.7656  -2.7282
    -2.6929  -2.5824  -2.5764  -2.5357  -2.4836  -2.4583  -2.4394  -2.3977
    -2.3212  -2.2990  -2.1206  -2.0078  -1.9849  -1.8993  -1.8903  -1.7786
    -1.7028  -1.2150  -1.1940  -1.0904  -1.0500  -0.9251  -0.7568  -0.7106
    -0.6551  -0.6095  -0.6047  -0.5318  -0.4834  -0.0970  -0.0808  -0.0522
     0.0047   0.0938   0.1662   0.2747   0.3758   2.5983   3.0272

     the Fermi energy is    -1.1367 ev

!    total energy              =   -1148.00385622 Ry
     estimated scf accuracy    <       0.00000010 Ry
     smearing contrib. (-TS)   =      -0.00350922 Ry
     internal energy E=F+TS    =   -1148.00034700 Ry

     The total energy is F=E-TS. E is the sum of the following terms:
     one-electron contribution =   -4847.34649814 Ry
     hartree contribution      =    2520.79609993 Ry
     xc contribution           =    -385.53171834 Ry
     ewald contribution        =    1564.08176954 Ry

     convergence has been achieved in  30 iterations

     negative rho (up, down):  8.531E-02 0.000E+00

     Forces acting on atoms (cartesian axes, Ry/au):

     atom    1 type  1   force =    -0.00465850    0.00245298   -0.00327184
     atom    2 type  1   force =     0.01776190   -0.00393147    0.00093539
     atom    3 type  1   force =     0.01183626    0.00551490    0.01664227
     atom    4 type  1   force =     0.00079807   -0.01317265    0.01708725
     atom    5 type  1   force =    -0.02642541   -0.02062827    0.03597263
     atom    6 type  1   force =    -0.00522682    0.00314684    0.01692317
     atom    7 type  1   force =     0.00375398    0.03335705    0.03694261
     atom    8 type  1   force =     0.01186029   -0.01370277    0.00132744
     atom    9 type  1   force =    -0.00550431    0.00311106    0.00041678
     atom   10 type  2   force =    -0.00310777    0.00914827   -0.01053578
     atom   11 type  2   force =    -0.00979060    0.00562815    0.01483437
     atom   12 type  2   force =    -0.00697725    0.00414941   -0.06055965
     atom   13 type  2   force =     0.00619208   -0.00289687   -0.00284554
     atom   14 type  2   force =     0.03269363   -0.01879440   -0.05019011
     atom   15 type  2   force =    -0.02967311    0.01683823   -0.00552047
     atom   16 type  2   force =     0.03198322    0.03231881    0.03135091
     atom   17 type  2   force =    -0.00803591   -0.00351042   -0.04594133
     atom   18 type  2   force =    -0.00871122    0.00440977   -0.00319488
     atom   19 type  2   force =     0.00680338   -0.00364751    0.01589360
     atom   20 type  2   force =    -0.00161018    0.00952130   -0.04562455
     atom   21 type  2   force =    -0.00011541   -0.00493857   -0.00013296
     atom   22 type  2   force =     0.00478665    0.00242048    0.00050792
     atom   23 type  2   force =    -0.01204504   -0.04411404    0.03088845
     atom   24 type  2   force =    -0.00901924   -0.00188587   -0.00899379
     atom   25 type  2   force =     0.00821748    0.00085873    0.00068050
     atom   26 type  2   force =     0.00382827   -0.00737641    0.00074290
     atom   27 type  2   force =    -0.00961442    0.00572326    0.01566469

     Total force =     0.167233     Total SCF correction =     0.000742


     Computing stress (Cartesian axis) and pressure


     negative rho (up, down):  8.531E-02 0.000E+00
          total   stress  (Ry/bohr**3)                   (kbar)     P=      -12.96
  -0.00009422  -0.00000102   0.00000722          -13.86       -0.15        1.06
  -0.00000102  -0.00009557  -0.00000375           -0.15      -14.06       -0.55
   0.00000722  -0.00000375  -0.00007458            1.06       -0.55      -10.97


     Writing all to output data dir /root/qe_scratch/pristine_NiSe2.save/ :
     XML data file, charge density, pseudopotentials, collected wavefunctions
 
     init_run     :      5.93s CPU      7.94s WALL (       1 calls)
     electrons    :     19.97s CPU     22.02s WALL (       1 calls)
     forces       :      0.79s CPU      0.85s WALL (       1 calls)
     stress       :      0.48s CPU      0.51s WALL (       1 calls)

     Called by init_run:
     wfcinit      :      0.16s CPU      0.37s WALL (       1 calls)
     potinit      :      4.96s CPU      6.55s WALL (       1 calls)
     hinit0       :      0.41s CPU      0.48s WALL (       1 calls)

     Called by electrons:
     c_bands      :      4.63s CPU      4.67s WALL (      30 calls)
     sum_band     :      1.68s CPU      1.70s WALL (      30 calls)
     v_of_rho     :      2.26s CPU      3.09s WALL (      31 calls)
     newd         :      6.81s CPU      6.92s WALL (      31 calls)
                                        6.92s GPU  (      31 calls)
     mix_rho      :      1.15s CPU      1.19s WALL (      30 calls)

     Called by c_bands:
     init_us_2    :      0.05s CPU      0.06s WALL (      61 calls)
     cegterg      :      4.47s CPU      4.50s WALL (      30 calls)

     Called by *egterg:
     cdiaghg      :      0.61s CPU      0.64s WALL (      77 calls)
                                        0.64s GPU  (      77 calls)
     h_psi        :      2.23s CPU      2.43s WALL (      78 calls)
                                        2.43s GPU  (      78 calls)
     s_psi        :      0.08s CPU      0.08s WALL (      78 calls)
     g_psi        :      0.00s CPU      0.01s WALL (      47 calls)
                                        0.01s GPU  (      47 calls)

     Called by h_psi:
     h_psi:calbec :      0.09s CPU      0.68s WALL (      78 calls)
                                        0.68s GPU  (      78 calls)
     vloc_psi     :      1.23s CPU      1.25s WALL (      78 calls)
                                        1.25s GPU  (      78 calls)
     add_vuspsi   :      0.08s CPU      0.49s WALL (      78 calls)
                                        0.48s GPU  (      78 calls)

     General routines
     calbec       :      0.09s CPU      0.26s WALL (     113 calls)
     fft          :      5.40s CPU      7.41s WALL (     426 calls)
                                        0.13s GPU  (     395 calls)
     ffts         :      2.34s CPU      2.92s WALL (      61 calls)
                                        0.00s GPU  (      30 calls)
     fftw         :      0.02s CPU      1.26s WALL (    1274 calls)
                                        1.25s GPU  (    1274 calls)
     interpolate  :      7.81s CPU     10.37s WALL (      31 calls)
 
     Parallel routines
 
     PWSCF        :     27.61s CPU     31.87s WALL

 
   This run was terminated on:   9:18:55   6May2026            

=------------------------------------------------------------------------------=
   JOB DONE.
=------------------------------------------------------------------------------=
Warning: ieee_invalid is signaling
Warning: ieee_divide_by_zero is signaling
Warning: ieee_inexact is signaling
FORTRAN STOP
